[Molden Format]
[Title]
Written by TeraChem
[Atoms] Angs
C   1   6     -4.88366    1.15987   -0.19405
C   2   6     -3.45788    0.73451    0.19335
H   3   1     -5.52354    0.36256   -0.69333
H   4   1     -5.16770    2.23287    0.05711
H   5   1     -5.68402    0.99602    0.59813
H   6   1     -2.63464    1.48334   -0.04421
H   7   1     -2.87286    0.17035   -0.60311
H   8   1     -3.11934    1.02632    1.23978
H   9   1     -5.00561    1.60211   -1.23537
H   10   1     -3.35897   -0.28837    0.68173
[GTO]
    1 0
 s    6 1.00
         3047.524900             0.001835
          457.369510             0.014037
          103.948690             0.068843
           29.210155             0.232184
            9.286663             0.467941
            3.163927             0.362312
 s    3 1.00
            7.868272            -0.119332
            1.881288            -0.160854
            0.544249             1.143456
 s    1 1.00
            0.168714             1.000000
 p    3 1.00
            7.868272             0.068999
            1.881288             0.316424
            0.544249             0.744308
 p    1 1.00
            0.168714             1.000000
 d    1 1.00
            0.800000             1.000000

    2 0
 s    6 1.00
         3047.524900             0.001835
          457.369510             0.014037
          103.948690             0.068843
           29.210155             0.232184
            9.286663             0.467941
            3.163927             0.362312
 s    3 1.00
            7.868272            -0.119332
            1.881288            -0.160854
            0.544249             1.143456
 s    1 1.00
            0.168714             1.000000
 p    3 1.00
            7.868272             0.068999
            1.881288             0.316424
            0.544249             0.744308
 p    1 1.00
            0.168714             1.000000
 d    1 1.00
            0.800000             1.000000

    3 0
 s    3 1.00
           18.731137             0.033495
            2.825394             0.234727
            0.640122             0.813757
 s    1 1.00
            0.161278             1.000000

    4 0
 s    3 1.00
           18.731137             0.033495
            2.825394             0.234727
            0.640122             0.813757
 s    1 1.00
            0.161278             1.000000

    5 0
 s    3 1.00
           18.731137             0.033495
            2.825394             0.234727
            0.640122             0.813757
 s    1 1.00
            0.161278             1.000000

    6 0
 s    3 1.00
           18.731137             0.033495
            2.825394             0.234727
            0.640122             0.813757
 s    1 1.00
            0.161278             1.000000

    7 0
 s    3 1.00
           18.731137             0.033495
            2.825394             0.234727
            0.640122             0.813757
 s    1 1.00
            0.161278             1.000000

    8 0
 s    3 1.00
           18.731137             0.033495
            2.825394             0.234727
            0.640122             0.813757
 s    1 1.00
            0.161278             1.000000

    9 0
 s    3 1.00
           18.731137             0.033495
            2.825394             0.234727
            0.640122             0.813757
 s    1 1.00
            0.161278             1.000000

   10 0
 s    3 1.00
           18.731137             0.033495
            2.825394             0.234727
            0.640122             0.813757
 s    1 1.00
            0.161278             1.000000

[MO]
 Ene=   -10.7287
 Spin= Alpha
 Occup= 2.0
    1   -0.70948
    2   -0.03599
    3    0.00907
    4    0.00034
    5   -0.00010
    6    0.00009
    7   -0.00127
    8    0.00038
    9   -0.00034
   10    0.00700
   11    0.00679
   12    0.00679
   13   -0.00008
   14    0.00007
   15   -0.00002
   16   -0.69430
   17   -0.03521
   18    0.00874
   19   -0.00034
   20    0.00010
   21   -0.00009
   22    0.00129
   23   -0.00038
   24    0.00035
   25    0.00686
   26    0.00665
   27    0.00665
   28   -0.00008
   29    0.00007
   30   -0.00002
   31    0.00008
   32   -0.00151
   33    0.00008
   34   -0.00151
   35    0.00008
   36   -0.00151
   37    0.00008
   38   -0.00147
   39    0.00008
   40   -0.00147
   41    0.00008
   42   -0.00147
   43    0.00008
   44   -0.00151
   45    0.00008
   46   -0.00147
 Ene=   -10.7285
 Spin= Alpha
 Occup= 2.0
    1   -0.69451
    2   -0.03577
    3    0.01519
    4    0.00009
    5   -0.00003
    6    0.00002
    7    0.00109
    8   -0.00032
    9    0.00030
   10    0.00624
   11    0.00640
   12    0.00640
   13    0.00006
   14   -0.00005
   15    0.00002
   16    0.70969
   17    0.03654
   18   -0.01538
   19    0.00010
   20   -0.00003
   21    0.00003
   22    0.00106
   23   -0.00033
   24    0.00029
   25   -0.00639
   26   -0.00654
   27   -0.00655
   28   -0.00006
   29    0.00005
   30   -0.00002
   31   -0.00022
   32   -0.00156
   33   -0.00022
   34   -0.00156
   35   -0.00022
   36   -0.00156
   37    0.00022
   38    0.00159
   39    0.00022
   40    0.00159
   41    0.00022
   42    0.00160
   43   -0.00022
   44   -0.00156
   45    0.00022
   46    0.00159
 Ene=    -1.3290
 Spin= Alpha
 Occup= 2.0
    1   -0.14629
    2    0.27861
    3    0.26907
    4    0.01484
    5   -0.00420
    6    0.00432
    7   -0.01626
    8    0.00502
    9   -0.00417
   10    0.00722
   11    0.00343
   12    0.00337
   13   -0.00144
   14    0.00128
   15   -0.00038
   16   -0.14626
   17    0.27856
   18    0.26902
   19   -0.01484
   20    0.00473
   21   -0.00404
   22    0.01622
   23   -0.00463
   24    0.00437
   25    0.00721
   26    0.00344
   27    0.00337
   28   -0.00141
   29    0.00129
   30   -0.00038
   31    0.08302
   32   -0.00009
   33    0.08325
   34   -0.00011
   35    0.08322
   36   -0.00011
   37    0.08322
   38   -0.00009
   39    0.08306
   40   -0.00009
   41    0.08315
   42   -0.00009
   43    0.08305
   44   -0.00009
   45    0.08300
   46   -0.00009
 Ene=    -1.2294
 Spin= Alpha
 Occup= 2.0
    1   -0.12589
    2    0.23909
    3    0.30366
    4   -0.13323
    5    0.03994
    6   -0.03575
    7   -0.05467
    8    0.01652
    9   -0.01462
   10   -0.00513
   11    0.00720
   12    0.00739
   13    0.00464
   14   -0.00429
   15    0.00128
   16    0.12595
   17   -0.23922
   18   -0.30368
   19   -0.13314
   20    0.03937
   21   -0.03603
   22   -0.05463
   23    0.01604
   24   -0.01485
   25    0.00513
   26   -0.00720
   27   -0.00740
   28   -0.00470
   29    0.00426
   30   -0.00128
   31    0.10669
   32    0.00612
   33    0.10694
   34    0.00616
   35    0.10696
   36    0.00621
   37   -0.10694
   38   -0.00620
   39   -0.10681
   40   -0.00618
   41   -0.10680
   42   -0.00612
   43    0.10665
   44    0.00609
   45   -0.10666
   46   -0.00612
 Ene=    -0.9992
 Spin= Alpha
 Occup= 2.0
    1   -0.00027
    2    0.00061
    3    0.00058
    4    0.05343
    5   -0.10711
    6   -0.31439
    7    0.02547
    8   -0.05144
    9   -0.15112
   10   -0.00357
   11   -0.00213
   12    0.00571
   13    0.00485
   14    0.01176
   15   -0.00264
   16   -0.00003
   17    0.00010
   18    0.00013
   19    0.05314
   20   -0.10705
   21   -0.31434
   22    0.02557
   23   -0.05142
   24   -0.15104
   25    0.00366
   26    0.00212
   27   -0.00577
   28   -0.00483
   29   -0.01174
   30    0.00245
   31    0.09836
   32    0.03794
   33   -0.09843
   34   -0.03816
   35   -0.12919
   36   -0.05001
   37    0.01808
   38    0.00704
   39    0.16120
   40    0.06227
   41   -0.16134
   42   -0.06247
   43    0.12915
   44    0.04996
   45   -0.01823
   46   -0.00697
 Ene=    -0.9992
 Spin= Alpha
 Occup= 2.0
    1   -0.00007
    2    0.00019
    3    0.00017
    4   -0.11378
    5   -0.30476
    6    0.08451
    7   -0.05471
    8   -0.14634
    9    0.04061
   10    0.00775
   11   -0.00620
   12   -0.00154
   13    0.01058
   14   -0.00209
   15    0.00420
   16   -0.00020
   17    0.00045
   18    0.00050
   19   -0.11396
   20   -0.30521
   21    0.08466
   22   -0.05465
   23   -0.14679
   24    0.04069
   25   -0.00770
   26    0.00612
   27    0.00158
   28   -0.01065
   29    0.00210
   30   -0.00424
   31    0.12906
   32    0.04984
   33   -0.12894
   34   -0.05006
   35    0.09813
   36    0.03806
   37   -0.16141
   38   -0.06252
   39    0.01811
   40    0.00699
   41   -0.01827
   42   -0.00701
   43   -0.09843
   44   -0.03799
   45    0.16151
   46    0.06232
 Ene=    -0.9593
 Spin= Alpha
 Occup= 2.0
    1    0.03210
    2   -0.08257
    3   -0.00876
    4   -0.38639
    5    0.11508
    6   -0.10430
    7   -0.17540
    8    0.05203
    9   -0.04724
   10   -0.00566
   11    0.00853
   12    0.00872
   13    0.00537
   14   -0.00498
   15    0.00149
   16    0.03201
   17   -0.08239
   18   -0.00840
   19    0.38647
   20   -0.11512
   21    0.10414
   22    0.17527
   23   -0.05229
   24    0.04693
   25   -0.00567
   26    0.00851
   27    0.00873
   28    0.00541
   29   -0.00498
   30    0.00150
   31    0.07362
   32    0.02728
   33    0.07356
   34    0.02754
   35    0.07392
   36    0.02759
   37    0.07377
   38    0.02758
   39    0.07407
   40    0.02752
   41    0.07316
   42    0.02736
   43    0.07317
   44    0.02723
   45    0.07337
   46    0.02727
 Ene=    -0.9207
 Spin= Alpha
 Occup= 2.0
    1   -0.00013
    2    0.00027
    3    0.00033
    4    0.03683
    5   -0.13986
    6   -0.29358
    7    0.02769
    8   -0.10486
    9   -0.22018
   10   -0.00594
   11   -0.00655
   12    0.01250
   13    0.01384
   14    0.02580
   15   -0.00461
   16    0.00009
   17   -0.00025
   18    0.00012
   19   -0.03737
   20    0.14002
   21    0.29360
   22   -0.02836
   23    0.10511
   24    0.22010
   25   -0.00601
   26   -0.00652
   27    0.01255
   28    0.01382
   29    0.02581
   30   -0.00442
   31    0.13192
   32    0.05018
   33   -0.13171
   34   -0.05024
   35   -0.13444
   36   -0.05122
   37    0.00233
   38    0.00091
   39   -0.18825
   40   -0.07161
   41    0.18848
   42    0.07174
   43    0.13461
   44    0.05117
   45   -0.00209
   46   -0.00074
 Ene=    -0.9207
 Spin= Alpha
 Occup= 2.0
    1    0.00006
    2   -0.00019
    3    0.00015
    4    0.11621
    5    0.28200
    6   -0.11963
    7    0.08738
    8    0.21133
    9   -0.08964
   10   -0.01841
   11    0.01331
   12    0.00511
   13   -0.02249
   14    0.00800
   15   -0.01021
   16   -0.00009
   17    0.00019
   18    0.00020
   19   -0.11565
   20   -0.28159
   21    0.11969
   22   -0.08679
   23   -0.21126
   24    0.08981
   25   -0.01835
   26    0.01321
   27    0.00514
   28   -0.02250
   29    0.00800
   30   -0.01021
   31   -0.13470
   32   -0.05118
   33    0.13462
   34    0.05138
   35   -0.13165
   36   -0.05021
   37   -0.18805
   38   -0.07164
   39   -0.00227
   40   -0.00082
   41    0.00223
   42    0.00084
   43    0.13210
   44    0.05026
   45    0.18836
   46    0.07154
 Ene=    -0.4831
 Spin= Alpha
 Occup= 0.0
    1    0.00002
    2   -0.00003
    3   -0.00021
    4   -0.00021
    5   -0.00007
    6    0.00001
    7   -0.00032
    8    0.00027
    9    0.00021
   10   -0.00271
   11    0.03638
   12   -0.03367
   13    0.00576
   14    0.01803
   15    0.02506
   16   -0.00003
   17    0.00005
   18    0.00033
   19   -0.00014
   20   -0.00008
   21   -0.00002
   22   -0.00022
   23   -0.00005
   24   -0.00031
   25    0.00460
   26    0.03123
   27   -0.03584
   28    0.01949
   29    0.00165
   30   -0.03224
   31    0.18600
   32    0.43057
   33    0.18631
   34    0.43163
   35   -0.18631
   36   -0.43195
   37    0.19763
   38    0.45774
   39   -0.19748
   40   -0.45717
   41   -0.19750
   42   -0.45696
   43   -0.18611
   44   -0.43055
   45    0.19741
   46    0.45645
 Ene=    -0.4812
 Spin= Alpha
 Occup= 0.0
    1    0.00005
    2   -0.00012
    3   -0.00042
    4   -0.00001
    5    0.00016
    6    0.00016
    7   -0.00005
    8    0.00009
    9    0.00037
   10    0.00441
   11   -0.03131
   12    0.02690
   13   -0.00068
   14   -0.01959
   15   -0.03729
   16    0.00003
   17   -0.00006
   18   -0.00030
   19   -0.00001
   20    0.00002
   21    0.00014
   22   -0.00009
   23    0.00016
   24    0.00018
   25    0.00540
   26    0.02034
   27   -0.02574
   28    0.01771
   29   -0.00364
   30   -0.03935
   31   -0.19817
   32   -0.45697
   33   -0.19862
   34   -0.45898
   35    0.19865
   36    0.45867
   37    0.18743
   38    0.43267
   39   -0.18715
   40   -0.43146
   41   -0.18718
   42   -0.43209
   43    0.19830
   44    0.45794
   45    0.18703
   46    0.43137
 Ene=    -0.3741
 Spin= Alpha
 Occup= 0.0
    1    0.09488
    2   -0.18397
    3   -1.41394
    4    0.13312
    5   -0.04115
    6    0.03507
    7    0.50058
    8   -0.15193
    9    0.13358
   10   -0.01562
   11    0.00297
   12    0.00321
   13    0.00693
   14   -0.00637
   15    0.00190
   16    0.09475
   17   -0.18375
   18   -1.41239
   19   -0.13378
   20    0.03836
   21   -0.03661
   22   -0.50183
   23    0.14666
   24   -0.13650
   25   -0.01560
   26    0.00289
   27    0.00328
   28    0.00706
   29   -0.00632
   30    0.00192
   31    0.04095
   32    0.55279
   33    0.04169
   34    0.55865
   35    0.04121
   36    0.55584
   37    0.04146
   38    0.55713
   39    0.04104
   40    0.55352
   41    0.04155
   42    0.55714
   43    0.04113
   44    0.55444
   45    0.04096
   46    0.55292
 Ene=    -0.3529
 Spin= Alpha
 Occup= 0.0
    1    0.14197
    2   -0.21744
    3   -2.05589
    4   -0.07899
    5    0.02334
    6   -0.02278
    7   -0.58028
    8    0.17217
    9   -0.16070
   10    0.02391
   11   -0.00550
   12   -0.00604
   13   -0.01114
   14    0.01003
   15   -0.00300
   16   -0.14207
   17    0.21762
   18    2.05747
   19   -0.07903
   20    0.02385
   21   -0.02252
   22   -0.57956
   23    0.17389
   24   -0.15952
   25   -0.02389
   26    0.00549
   27    0.00604
   28    0.01110
   29   -0.01002
   30    0.00300
   31    0.03448
   32    0.39549
   33    0.03471
   34    0.39883
   35    0.03494
   36    0.39989
   37   -0.03475
   38   -0.39941
   39   -0.03498
   40   -0.39975
   41   -0.03421
   42   -0.39566
   43    0.03431
   44    0.39466
   45   -0.03460
   46   -0.39666
 Ene=    -0.3247
 Spin= Alpha
 Occup= 0.0
    1   -0.00073
    2    0.00136
    3    0.01126
    4    0.02454
    5   -0.17466
    6   -0.28109
    7    0.05345
    8   -0.37616
    9   -0.60499
   10    0.00428
   11    0.00932
   12   -0.01360
   13   -0.01885
   14   -0.02843
   15    0.00380
   16    0.00010
   17    0.00009
   18   -0.00123
   19    0.02541
   20   -0.17514
   21   -0.28041
   22    0.05761
   23   -0.37802
   24   -0.60274
   25   -0.00417
   26   -0.00933
   27    0.01363
   28    0.01876
   29    0.02851
   30   -0.00377
   31   -0.09539
   32   -0.71288
   33    0.09486
   34    0.70722
   35    0.07668
   36    0.56947
   37    0.01596
   38    0.11715
   39   -0.12131
   40   -0.90492
   41    0.12082
   42    0.90185
   43   -0.07660
   44   -0.57384
   45   -0.01591
   46   -0.11963
 Ene=    -0.3247
 Spin= Alpha
 Occup= 0.0
    1    0.00003
    2    0.00009
    3    0.00002
    4   -0.12268
    5   -0.26664
    6    0.15501
    7   -0.26577
    8   -0.57333
    9    0.33299
   10   -0.02171
   11    0.01424
   12    0.00755
   13   -0.02387
   14    0.01269
   15   -0.01233
   16   -0.00044
   17    0.00080
   18    0.00672
   19   -0.12188
   20   -0.26640
   21    0.15541
   22   -0.26273
   23   -0.57341
   24    0.33449
   25    0.02179
   26   -0.01427
   27   -0.00754
   28    0.02387
   29   -0.01266
   30    0.01231
   31   -0.07684
   32   -0.57316
   33    0.07647
   34    0.57041
   35   -0.09504
   36   -0.71107
   37    0.12082
   38    0.90199
   39    0.01596
   40    0.11714
   41   -0.01587
   42   -0.11971
   43    0.09508
   44    0.70928
   45   -0.12116
   46   -0.90522
 Ene=    -0.2853
 Spin= Alpha
 Occup= 0.0
    1    0.01238
    2    0.00904
    3   -0.30121
    4   -0.38495
    5    0.11608
    6   -0.10452
    7   -1.45079
    8    0.43571
    9   -0.39426
   10    0.03590
   11   -0.00997
   12   -0.01081
   13   -0.01741
   14    0.01566
   15   -0.00470
   16   -0.01239
   17   -0.00909
   18    0.30223
   19   -0.38528
   20    0.11382
   21   -0.10564
   22   -1.45111
   23    0.43025
   24   -0.39679
   25   -0.03594
   26    0.01002
   27    0.01079
   28    0.01727
   29   -0.01576
   30    0.00468
   31   -0.04669
   32   -0.46605
   33   -0.04691
   34   -0.46867
   35   -0.04650
   36   -0.46479
   37    0.04678
   38    0.46651
   39    0.04653
   40    0.46366
   41    0.04721
   42    0.47010
   43   -0.04695
   44   -0.46861
   45    0.04677
   46    0.46609
 Ene=    -0.2328
 Spin= Alpha
 Occup= 0.0
    1   -0.00011
    2    0.00044
    3    0.00051
    4    0.03872
    5   -0.18854
    6   -0.35317
    7    0.10997
    8   -0.54497
    9   -1.02160
   10   -0.00166
   11   -0.00260
   12    0.00426
   13    0.00513
   14    0.00885
   15   -0.00136
   16   -0.00002
   17   -0.00012
   18    0.00192
   19   -0.04007
   20    0.18971
   21    0.35270
   22   -0.11710
   23    0.54846
   24    1.01948
   25   -0.00181
   26   -0.00251
   27    0.00432
   28    0.00517
   29    0.00878
   30   -0.00142
   31   -0.04064
   32   -0.85822
   33    0.04050
   34    0.85501
   35    0.03723
   36    0.79226
   37   -0.00309
   38   -0.07168
   39    0.05506
   40    1.16669
   41   -0.05513
   42   -1.16576
   43   -0.03761
   44   -0.79497
   45    0.00351
   46    0.07320
 Ene=    -0.2327
 Spin= Alpha
 Occup= 0.0
    1   -0.00002
    2   -0.00010
    3    0.00126
    4    0.14572
    5    0.33704
    6   -0.16403
    7    0.42256
    8    0.97418
    9   -0.47424
   10   -0.00652
   11    0.00451
   12    0.00199
   13   -0.00751
   14    0.00325
   15   -0.00359
   16   -0.00007
   17    0.00029
   18    0.00008
   19   -0.14467
   20   -0.33746
   21    0.16501
   22   -0.41698
   23   -0.97607
   24    0.47715
   25   -0.00642
   26    0.00445
   27    0.00197
   28   -0.00764
   29    0.00321
   30   -0.00361
   31    0.03762
   32    0.79481
   33   -0.03736
   34   -0.79251
   35    0.04055
   36    0.85671
   37    0.05488
   38    1.16504
   39    0.00329
   40    0.07172
   41   -0.00339
   42   -0.07311
   43   -0.04061
   44   -0.85673
   45   -0.05517
   46   -1.16792
 Ene=    -0.0051
 Spin= Alpha
 Occup= 0.0
    1   -0.01152
    2   -0.05915
    3   -0.46874
    4   -0.59847
    5    0.17870
    6   -0.16238
    7    0.93260
    8   -0.27791
    9    0.25281
   10   -0.09910
   11    0.02781
   12    0.02994
   13    0.04802
   14   -0.04368
   15    0.01306
   16   -0.01150
   17   -0.05895
   18   -0.46883
   19    0.59887
   20   -0.17828
   21    0.16255
   22   -0.93228
   23    0.27786
   24   -0.25252
   25   -0.09906
   26    0.02785
   27    0.02997
   28    0.04795
   29   -0.04372
   30    0.01306
   31    0.04973
   32    0.09771
   33    0.04991
   34    0.09596
   35    0.04981
   36    0.09657
   37    0.05003
   38    0.09567
   39    0.04990
   40    0.09726
   41    0.05001
   42    0.09574
   43    0.04975
   44    0.09662
   45    0.04977
   46    0.09676
 Ene=     0.0600
 Spin= Alpha
 Occup= 0.0
    1   -0.00006
    2    0.00012
    3    0.00029
    4   -0.01895
    5   -0.32996
    6   -0.29538
    7    0.03517
    8    0.61039
    9    0.54667
   10    0.00843
   11   -0.04438
   12    0.03588
   13    0.08468
   14    0.07804
   15    0.00016
   16   -0.00004
   17    0.00026
   18   -0.00070
   19   -0.01843
   20   -0.33053
   21   -0.29400
   22    0.03442
   23    0.61165
   24    0.54396
   25   -0.00829
   26    0.04420
   27   -0.03595
   28   -0.08457
   29   -0.07812
   30   -0.00068
   31    0.33726
   32    0.07664
   33   -0.33715
   34   -0.07729
   35   -0.13068
   36   -0.03002
   37   -0.15328
   38   -0.03565
   39    0.32733
   40    0.07456
   41   -0.32723
   42   -0.07514
   43    0.13021
   44    0.03058
   45    0.15307
   46    0.03575
 Ene=     0.0602
 Spin= Alpha
 Occup= 0.0
    1    0.00002
    2    0.00017
    3   -0.00141
    4   -0.16468
    5   -0.26934
    6    0.31097
    7    0.30438
    8    0.49852
    9   -0.57563
   10    0.07430
   11   -0.03630
   12   -0.03799
   13    0.05710
   14   -0.06951
   15    0.04336
   16   -0.00003
   17    0.00007
   18    0.00066
   19   -0.16408
   20   -0.26786
   21    0.31187
   22    0.30337
   23    0.49631
   24   -0.57761
   25   -0.07429
   26    0.03612
   27    0.03817
   28   -0.05719
   29    0.06950
   30   -0.04310
   31    0.13068
   32    0.03018
   33   -0.13044
   34   -0.03038
   35    0.33720
   36    0.07723
   37   -0.32723
   38   -0.07552
   39   -0.15347
   40   -0.03527
   41    0.15316
   42    0.03596
   43   -0.33728
   44   -0.07693
   45    0.32744
   46    0.07510
 Ene=     0.1520
 Spin= Alpha
 Occup= 0.0
    1    0.04224
    2   -0.38989
    3    1.28515
    4   -0.68794
    5    0.20532
    6   -0.18673
    7    2.00751
    8   -0.59865
    9    0.54521
   10    0.05168
   11   -0.02279
   12   -0.02407
   13   -0.02814
   14    0.02556
   15   -0.00757
   16   -0.04224
   17    0.38991
   18   -1.28616
   19   -0.68764
   20    0.20499
   21   -0.18669
   22    2.00651
   23   -0.59864
   24    0.54478
   25   -0.05171
   26    0.02281
   27    0.02406
   28    0.02818
   29   -0.02556
   30    0.00759
   31    0.11086
   32    0.24509
   33    0.11058
   34    0.24350
   35    0.11067
   36    0.24400
   37   -0.11053
   38   -0.24355
   39   -0.11108
   40   -0.24405
   41   -0.11053
   42   -0.24369
   43    0.11040
   44    0.24493
   45   -0.11059
   46   -0.24480
 Ene=     0.2624
 Spin= Alpha
 Occup= 0.0
    1    0.00002
    2   -0.00033
    3    0.00081
    4    0.00032
    5   -0.00045
    6   -0.00268
    7   -0.00094
    8    0.00201
    9    0.00772
   10    0.01267
   11   -0.08010
   12    0.06741
   13    0.00096
   14   -0.05276
   15   -0.10542
   16   -0.00002
   17    0.00009
   18   -0.00034
   19   -0.00035
   20    0.00157
   21    0.00197
   22    0.00123
   23   -0.00415
   24   -0.00653
   25   -0.01606
   26   -0.05609
   27    0.07214
   28   -0.05112
   29    0.01213
   30    0.11692
   31   -0.37594
   32    0.84700
   33   -0.37683
   34    0.84506
   35    0.37747
   36   -0.85084
   37   -0.38505
   38    0.86555
   39    0.38452
   40   -0.86775
   41    0.38395
   42   -0.85998
   43    0.37549
   44   -0.84153
   45   -0.38355
   46    0.86205
 Ene=     0.2657
 Spin= Alpha
 Occup= 0.0
    1   -0.00001
    2    0.00015
    3   -0.00020
    4    0.00010
    5   -0.00071
    6   -0.00138
    7   -0.00029
    8    0.00171
    9    0.00284
   10   -0.00734
   11    0.10848
   12   -0.10113
   13    0.01850
   14    0.05207
   15    0.06923
   16   -0.00001
   17    0.00009
   18   -0.00011
   19   -0.00003
   20   -0.00014
   21   -0.00014
   22    0.00036
   23   -0.00051
   24   -0.00083
   25   -0.01181
   26   -0.08953
   27    0.10135
   28   -0.05271
   29   -0.00737
   30    0.08120
   31    0.38276
   32   -0.86860
   33    0.38509
   34   -0.87472
   35   -0.38395
   36    0.87144
   37   -0.37657
   38    0.85500
   39    0.37537
   40   -0.85375
   41    0.37667
   42   -0.85398
   43   -0.38436
   44    0.87240
   45   -0.37582
   46    0.85287
 Ene=     0.3287
 Spin= Alpha
 Occup= 0.0
    1    0.00006
    2   -0.00267
    3    0.00628
    4    0.15965
    5   -0.16320
    6   -0.76470
    7   -0.47581
    8    0.48377
    9    2.28503
   10    0.01233
   11    0.00458
   12   -0.01721
   13   -0.01036
   14   -0.03402
   15    0.00872
   16    0.00005
   17   -0.00041
   18   -0.00116
   19   -0.16053
   20    0.15916
   21    0.76478
   22    0.47895
   23   -0.47843
   24   -2.28469
   25    0.01329
   26    0.00399
   27   -0.01736
   28   -0.00885
   29   -0.03408
   30    0.00849
   31   -0.13791
   32    0.74081
   33    0.14144
   34   -0.74819
   35    0.23776
   36   -1.27872
   37    0.06840
   38   -0.35593
   39    0.26599
   40   -1.43327
   41   -0.26792
   42    1.43968
   43   -0.23741
   44    1.27939
   45   -0.06482
   46    0.34900
 Ene=     0.3288
 Spin= Alpha
 Occup= 0.0
    1   -0.00001
    2    0.00137
    3   -0.00477
    4    0.25244
    5    0.74912
    6   -0.10741
    7   -0.75501
    8   -2.23800
    9    0.31739
   10    0.02092
   11   -0.01821
   12   -0.00258
   13    0.03166
   14   -0.00245
   15    0.01126
   16    0.00001
   17   -0.00187
   18    0.00562
   19   -0.25193
   20   -0.74996
   21    0.10303
   22    0.75170
   23    2.24072
   24   -0.31164
   25    0.02015
   26   -0.01843
   27   -0.00191
   28    0.03191
   29   -0.00106
   30    0.01099
   31    0.23726
   32   -1.27821
   33   -0.23782
   34    1.27921
   35    0.13933
   36   -0.74360
   37    0.26699
   38   -1.43685
   39   -0.06583
   40    0.35020
   41    0.06770
   42   -0.35521
   43   -0.13998
   44    0.74624
   45   -0.26679
   46    1.43707
 Ene=     0.3679
 Spin= Alpha
 Occup= 0.0
    1    0.00014
    2   -0.00571
    3    0.01204
    4    0.13985
    5   -0.11971
    6   -0.63901
    7   -0.24608
    8    0.21343
    9    1.13138
   10    0.04517
   11    0.01137
   12   -0.05723
   13   -0.03030
   14   -0.11527
   15    0.03050
   16    0.00004
   17   -0.00093
   18    0.00063
   19    0.14004
   20   -0.11389
   21   -0.64089
   22   -0.24932
   23    0.20012
   24    1.13585
   25   -0.04653
   26   -0.01101
   27    0.05734
   28    0.03031
   29    0.11490
   30   -0.03052
   31   -0.20251
   32    0.55083
   33    0.20570
   34   -0.55592
   35    0.37441
   36   -1.01348
   37   -0.11266
   38    0.30719
   39   -0.40921
   40    1.11157
   41    0.40899
   42   -1.10849
   43   -0.36974
   44    1.00408
   45    0.11528
   46   -0.31169
 Ene=     0.3679
 Spin= Alpha
 Occup= 0.0
    1    0.00014
    2   -0.00464
    3    0.00852
    4   -0.20572
    5   -0.62838
    6    0.07254
    7    0.36574
    8    1.11203
    9   -0.12972
   10   -0.06915
   11    0.06188
   12    0.00667
   13   -0.10795
   14    0.00236
   15   -0.03671
   16    0.00014
   17   -0.00505
   18    0.00967
   19   -0.20737
   20   -0.62902
   21    0.06680
   22    0.36596
   23    1.11530
   24   -0.11724
   25    0.06732
   26   -0.06193
   27   -0.00603
   28    0.10860
   29   -0.00260
   30    0.03672
   31   -0.37104
   32    1.00831
   33    0.37338
   34   -1.01036
   35   -0.20153
   36    0.54897
   37    0.41074
   38   -1.11246
   39   -0.11169
   40    0.30527
   41    0.11621
   42   -0.31244
   43    0.20679
   44   -0.55795
   45   -0.40724
   46    1.10734
 Ene=     0.4092
 Spin= Alpha
 Occup= 0.0
    1   -0.02990
    2    0.86070
    3   -1.64739
    4   -0.26929
    5    0.07640
    6   -0.07619
    7    0.32362
    8   -0.08923
    9    0.09492
   10    0.12986
   11   -0.01575
   12   -0.01886
   13   -0.05607
   14    0.04976
   15   -0.01516
   16   -0.02998
   17    0.86193
   18   -1.64951
   19    0.26859
   20   -0.08392
   21    0.07263
   22   -0.32341
   23    0.10331
   24   -0.08863
   25    0.13041
   26   -0.01660
   27   -0.01849
   28   -0.05450
   29    0.05070
   30   -0.01490
   31   -0.35506
   32    0.53512
   33   -0.34836
   34    0.51635
   35   -0.35023
   36    0.52154
   37   -0.34949
   38    0.51996
   39   -0.35368
   40    0.53027
   41   -0.35061
   42    0.52338
   43   -0.35260
   44    0.52879
   45   -0.35444
   46    0.53312
 Ene=     0.4238
 Spin= Alpha
 Occup= 0.0
    1   -0.02358
    2    1.01497
    3   -2.38446
    4   -0.34566
    5    0.10210
    6   -0.09570
    7    0.53357
    8   -0.15668
    9    0.14833
   10    0.05782
   11    0.02322
   12    0.02234
   13   -0.01334
   14    0.01155
   15   -0.00354
   16    0.02356
   17   -1.01310
   18    2.38059
   19   -0.34491
   20    0.10370
   21   -0.09482
   22    0.53162
   23   -0.16071
   24    0.14625
   25   -0.05775
   26   -0.02296
   27   -0.02240
   28    0.01295
   29   -0.01173
   30    0.00344
   31   -0.30314
   32    0.68544
   33   -0.30010
   34    0.67719
   35   -0.30027
   36    0.67785
   37    0.30006
   38   -0.67706
   39    0.30094
   40   -0.67938
   41    0.30143
   42   -0.68098
   43   -0.30272
   44    0.68417
   45    0.30226
   46   -0.68318
 Ene=     0.6516
 Spin= Alpha
 Occup= 0.0
    1    0.08974
    2    1.28959
    3   -3.14143
    4    0.08490
    5   -0.02084
    6    0.00662
    7    0.68348
    8   -0.24302
    9    0.33391
   10    0.03369
   11    0.10225
   12    0.10575
   13    0.02346
   14   -0.01601
   15    0.00422
   16    0.08978
   17    1.29032
   18   -3.14519
   19   -0.08468
   20    0.02127
   21   -0.00653
   22   -0.68110
   23    0.23976
   24   -0.33415
   25    0.03376
   26    0.10220
   27    0.10579
   28    0.02381
   29   -0.01572
   30    0.00432
   31    0.36013
   32    0.51267
   33    0.34955
   34    0.50121
   35    0.31666
   36    0.46795
   37    0.33195
   38    0.48403
   39    0.32354
   40    0.47549
   41    0.38579
   42    0.53831
   43    0.39292
   44    0.54568
   45    0.37717
   46    0.52997
 Ene=     0.6583
 Spin= Alpha
 Occup= 0.0
    1   -0.00117
    2   -0.01802
    3    0.04362
    4    0.07491
    5    0.26942
    6    0.01543
    7   -0.70191
    8   -2.43498
    9   -0.13626
   10   -0.06000
   11    0.06034
   12   -0.00345
   13   -0.11136
   14   -0.01578
   15   -0.03038
   16   -0.00092
   17   -0.01163
   18    0.02872
   19   -0.07577
   20   -0.26973
   21   -0.01289
   22    0.69888
   23    2.43827
   24    0.12898
   25   -0.05968
   26    0.06046
   27   -0.00319
   28   -0.11132
   29   -0.01607
   30   -0.03206
   31   -0.62972
   32   -0.64729
   33    0.61970
   34    0.63311
   35   -0.22281
   36   -0.22684
   37   -0.60593
   38   -0.62143
   39    0.27193
   40    0.27323
   41   -0.27941
   42   -0.28383
   43    0.21436
   44    0.21267
   45    0.59871
   46    0.61387
 Ene=     0.6584
 Spin= Alpha
 Occup= 0.0