[Molden Format]
[Title]
Written by TeraChem
[Atoms] Angs
C   1   6     -7.76468    1.94489    0.00380
N   2   7     -6.36971    2.16343   -0.00657
H   3   1     -6.26065    3.19089    0.10987
H   4   1     -7.97903    0.85593   -0.11995
H   5   1     -8.43205    2.41864   -0.81474
H   6   1     -8.38661    2.20938    0.94389
[GTO]
    1 0
 s    6 1.00
         3047.524900             0.001835
          457.369510             0.014037
          103.948690             0.068843
           29.210155             0.232184
            9.286663             0.467941
            3.163927             0.362312
 s    3 1.00
            7.868272            -0.119332
            1.881288            -0.160854
            0.544249             1.143456
 s    1 1.00
            0.168714             1.000000
 p    3 1.00
            7.868272             0.068999
            1.881288             0.316424
            0.544249             0.744308
 p    1 1.00
            0.168714             1.000000
 d    1 1.00
            0.800000             1.000000

    2 0
 s    6 1.00
         4173.511000             0.001835
          627.457900             0.013995
          142.902100             0.068587
           40.234330             0.232241
           12.820210             0.469070
            4.390437             0.360455
 s    3 1.00
           11.626358            -0.114961
            2.716280            -0.169118
            0.772218             1.145852
 s    1 1.00
            0.212031             1.000000
 p    3 1.00
           11.626358             0.067580
            2.716280             0.323907
            0.772218             0.740895
 p    1 1.00
            0.212031             1.000000
 d    1 1.00
            0.800000             1.000000

    3 0
 s    3 1.00
           18.731137             0.033495
            2.825394             0.234727
            0.640122             0.813757
 s    1 1.00
            0.161278             1.000000

    4 0
 s    3 1.00
           18.731137             0.033495
            2.825394             0.234727
            0.640122             0.813757
 s    1 1.00
            0.161278             1.000000

    5 0
 s    3 1.00
           18.731137             0.033495
            2.825394             0.234727
            0.640122             0.813757
 s    1 1.00
            0.161278             1.000000

    6 0
 s    3 1.00
           18.731137             0.033495
            2.825394             0.234727
            0.640122             0.813757
 s    1 1.00
            0.161278             1.000000

[MO]
 Ene=   -13.9566
 Spin= Alpha
 Occup= 2.0
    1   -0.00001
    2   -0.00031
    3    0.00008
    4   -0.00020
    5   -0.00001
    6    0.00000
    7    0.00038
    8   -0.00015
    9   -0.00003
   10    0.00020
   11    0.00005
   12    0.00002
   13    0.00004
   14   -0.00000
   15    0.00000
   16   -0.99282
   17   -0.03431
   18   -0.00328
   19    0.00108
   20   -0.00095
   21   -0.00014
   22   -0.00028
   23    0.00045
   24    0.00006
   25    0.00791
   26    0.00796
   27    0.00799
   28   -0.00003
   29   -0.00000
   30   -0.00000
   31   -0.00023
   32    0.00019
   33   -0.00001
   34    0.00005
   35    0.00004
   36    0.00013
   37    0.00004
   38    0.00013
 Ene=    -9.9552
 Spin= Alpha
 Occup= 2.0
    1    0.99299
    2    0.04856
    3   -0.01458
    4   -0.00053
    5   -0.00019
    6   -0.00001
    7    0.00078
    8    0.00050
    9    0.00004
   10   -0.00887
   11   -0.00900
   12   -0.00905
   13    0.00006
   14    0.00000
   15    0.00001
   16   -0.00016
   17   -0.00026
   18    0.00255
   19    0.00022
   20    0.00006
   21    0.00000
   22   -0.00098
   23   -0.00032
   24   -0.00001
   25   -0.00041
   26   -0.00018
   27   -0.00013
   28   -0.00005
   29    0.00000
   30   -0.00001
   31   -0.00005
   32    0.00037
   33   -0.00009
   34    0.00287
   35   -0.00007
   36    0.00256
   37   -0.00007
   38    0.00256
 Ene=    -0.5329
 Spin= Alpha
 Occup= 2.0
    1   -0.14269
    2    0.27815
    3    0.19874
    4    0.09155
    5    0.01409
    6   -0.00077
    7   -0.00650
    8    0.00698
    9    0.00099
   10    0.01181
   11   -0.00550
   12   -0.00938
   13    0.00499
   14   -0.00005
   15    0.00040
   16   -0.15641
   17    0.31973
   18    0.31123
   19   -0.11664
   20    0.04933
   21    0.00871
   22   -0.03753
   23    0.02180
   24    0.00348
   25    0.00530
   26    0.00331
   27   -0.01530
   28    0.00095
   29   -0.00051
   30    0.00251
   31    0.11177
   32    0.02347
   33    0.07356
   34    0.02450
   35    0.06398
   36    0.01362
   37    0.06390
   38    0.01358
 Ene=    -0.3554
 Spin= Alpha
 Occup= 2.0
    1    0.12663
    2   -0.25574
    3   -0.23827
    4    0.20280
    5    0.07382
    6    0.00349
    7    0.08824
    8    0.02339
    9    0.00048
   10    0.01539
   11   -0.00568
   12   -0.00426
   13    0.00689
   14    0.00022
   15   -0.00037
   16   -0.11382
   17    0.23967
   18    0.25863
   19    0.02381
   20    0.10874
   21    0.01203
   22    0.01943
   23    0.04361
   24    0.00457
   25   -0.01420
   26    0.01128
   27   -0.00883
   28   -0.00111
   29    0.00002
   30    0.00276
   31    0.14053
   32    0.06356
   33   -0.14569
   34   -0.07768
   35   -0.12669
   36   -0.06664
   37   -0.12663
   38   -0.06660
 Ene=    -0.1694
 Spin= Alpha
 Occup= 2.0
    1    0.00704
    2   -0.01690
    3   -0.04404
    4   -0.24452
    5    0.30257
    6    0.04118
    7   -0.11550
    8    0.12845
    9    0.01783
   10   -0.00088
   11   -0.00939
   12    0.01613
   13   -0.00605
   14   -0.00015
   15   -0.00343
   16    0.02278
   17   -0.04851
   18   -0.06583
   19    0.11050
   20    0.23262
   21    0.02412
   22    0.01983
   23    0.08605
   24    0.00945
   25   -0.00641
   26    0.01591
   27    0.00063
   28   -0.01049
   29   -0.00101
   30    0.00235
   31    0.14046
   32    0.15259
   33   -0.16488
   34   -0.16569
   35    0.13506
   36    0.14435
   37    0.13389
   38    0.14307
 Ene=    -0.1347
 Spin= Alpha
 Occup= 2.0
    1   -0.00001
    2    0.00002
    3    0.00007
    4    0.01039
    5   -0.04859
    6    0.41809
    7    0.00429
    8   -0.02027
    9    0.17493
   10   -0.00090
   11   -0.00207
   12    0.00298
   13    0.00267
   14   -0.02047
   15    0.00959
   16   -0.00001
   17    0.00002
   18    0.00007
   19    0.00360
   20   -0.01522
   21    0.13296
   22    0.00203
   23   -0.00887
   24    0.07685
   25   -0.00057
   26   -0.00068
   27    0.00125
   28    0.00154
   29   -0.01247
   30    0.00337
   31    0.00015
   32    0.00020
   33   -0.00063
   34   -0.00069
   35   -0.21531
   36   -0.25791
   37    0.21609
   38    0.25880
 Ene=    -0.0969
 Spin= Alpha
 Occup= 2.0
    1   -0.04138
    2    0.08655
    3    0.17913
    4    0.24586
    5    0.28962
    6    0.02762
    7    0.13617
    8    0.13704
    9    0.01259
   10    0.01122
   11   -0.02540
   12   -0.00206
   13   -0.01238
   14   -0.00181
   15   -0.00293
   16    0.01760
   17   -0.02610
   18   -0.09972
   19   -0.30216
   20   -0.18243
   21   -0.01331
   22   -0.13229
   23   -0.07774
   24   -0.00557
   25    0.02449
   26   -0.02221
   27    0.00231
   28   -0.00998
   29   -0.00182
   30   -0.00307
   31   -0.18012
   32   -0.21693
   33   -0.20835
   34   -0.26927
   35    0.02711
   36    0.02606
   37    0.02656
   38    0.02535
 Ene=     0.0472
 Spin= Alpha
 Occup= 2.0
    1   -0.03338
    2    0.07686
    3    0.12525
    4    0.15455
    5   -0.04907
    6   -0.00963
    7    0.02664
    8    0.05891
    9    0.00618
   10   -0.01764
   11    0.01331
   12   -0.00887
   13    0.02183
   14    0.00277
   15    0.00249
   16    0.09943
   17   -0.17601
   18   -0.53979
   19   -0.30706
   20    0.33042
   21    0.04623
   22   -0.26339
   23    0.21964
   24    0.03226
   25    0.02609
   26    0.02637
   27    0.00512
   28   -0.01802
   29   -0.00273
   30    0.00337
   31    0.15203
   32    0.23823
   33    0.10897
   34    0.19380
   35   -0.07700
   36   -0.19216
   37   -0.07643
   38   -0.19094
 Ene=     0.1222
 Spin= Alpha
 Occup= 2.0
    1   -0.00002
    2    0.00001
    3    0.00012
    4   -0.00047
    5    0.00190
    6   -0.01679
    7    0.00337
    8   -0.01573
    9    0.13491
   10    0.00166
   11    0.00025
   12   -0.00192
   13   -0.00443
   14    0.03776
   15   -0.00080
   16    0.00002
   17   -0.00002
   18   -0.00014
   19    0.01394
   20   -0.06272
   21    0.54007
   22    0.01295
   23   -0.05839
   24    0.50255
   25   -0.00073
   26   -0.00349
   27    0.00423
   28    0.00236
   29   -0.01638
   30    0.01715
   31    0.00002
   32    0.00015
   33    0.00041
   34    0.00106
   35    0.12629
   36    0.34842
   37   -0.12671
   38   -0.34968
 Ene=     0.3233
 Spin= Alpha
 Occup= 0.0
    1    0.13911
    2   -0.12233
    3   -2.19123
    4    0.22913
    5    0.00362
    6   -0.00537
    7    0.68912
    8    0.13206
    9   -0.00174
   10    0.01292
   11    0.01722
   12    0.01840
   13   -0.00278
   14   -0.00017
   15   -0.00009
   16    0.02233
   17   -0.03306
   18   -0.31169
   19   -0.07639
   20   -0.07417
   21   -0.00662
   22   -0.12314
   23   -0.20151
   24   -0.02023
   25    0.00283
   26   -0.00027
   27    0.00896
   28   -0.00090
   29    0.00008
   30   -0.00124
   31    0.00583
   32    0.43655
   33    0.00909
   34    1.00185
   35    0.01590
   36    1.13344
   37    0.01588
   38    1.13192
 Ene=     0.3737
 Spin= Alpha
 Occup= 0.0
    1   -0.05762
    2    0.04926
    3    1.08137
    4    0.03200
    5   -0.20710
    6   -0.02347
    7    0.32445
    8   -0.45224
    9   -0.05710
   10   -0.00871
   11   -0.00018
   12   -0.00276
   13   -0.00916
   14   -0.00095
   15    0.00054
   16    0.09163
   17   -0.07731
   18   -1.47081
   19    0.01475
   20   -0.24045
   21   -0.02893
   22    0.21844
   23   -0.56900
   24   -0.07307
   25    0.02670
   26    0.01537
   27    0.04446
   28    0.01150
   29    0.00187
   30   -0.00432
   31    0.05505
   32    1.51934
   33   -0.03484
   34   -1.12297
   35    0.00790
   36    0.02488
   37    0.00755
   38    0.01385
 Ene=     0.3941
 Spin= Alpha
 Occup= 0.0
    1    0.02345
    2   -0.01689
    3   -0.35492
    4    0.06748
    5   -0.37521
    6   -0.04818
    7   -0.07070
    8   -1.22372
    9   -0.14803
   10    0.00615
   11   -0.00661
   12    0.00354
   13    0.01317
   14    0.00156
   15   -0.00171
   16   -0.04205
   17    0.03776
   18    0.72793
   19   -0.10311
   20    0.16366
   21    0.02278
   22   -0.29394
   23    0.52188
   24    0.07072
   25   -0.01030
   26    0.00028
   27   -0.02044
   28    0.00458
   29    0.00025
   30    0.00274
   31    0.02889
   32   -0.60830
   33   -0.05053
   34   -1.45911
   35    0.03224
   36    0.74201
   37    0.03250
   38    0.75140
 Ene=     0.4026
 Spin= Alpha
 Occup= 0.0
    1    0.00030
    2   -0.00015
    3   -0.00632
    4    0.01225
    5   -0.05650
    6    0.47133
    7    0.02944
    8   -0.15040
    9    1.23892
   10   -0.00055
   11    0.00197
   12   -0.00138
   13    0.00143
   14   -0.01359
   15   -0.00963
   16   -0.00057
   17    0.00048
   18    0.01003
   19   -0.00495
   20    0.02154
   21   -0.16953
   22   -0.01343
   23    0.05318
   24   -0.41324
   25   -0.00032
   26    0.00288
   27   -0.00303
   28    0.00009
   29   -0.00407
   30   -0.01418
   31    0.00009
   32   -0.00909
   33   -0.00010
   34   -0.00130
   35    0.02873
   36    1.37674
   37   -0.02859
   38   -1.37180
 Ene=     0.5255
 Spin= Alpha
 Occup= 0.0
    1    0.06714
    2   -0.03594
    3   -1.42619
    4   -0.12977
    5    0.00592
    6    0.00386
    7   -2.10844
    8   -0.06408
    9    0.04651
   10    0.03045
   11   -0.01541
   12   -0.01851
   13   -0.00129
   14   -0.00159
   15    0.00047
   16   -0.07184
   17    0.06785
   18    1.54863
   19   -0.30043
   20   -0.22132
   21   -0.01794
   22   -1.32036
   23   -0.61637
   24   -0.03766
   25    0.02009
   26   -0.02648
   27   -0.03094
   28    0.00469
   29   -0.00096
   30    0.00051
   31    0.02916
   32    0.82410
   33   -0.07628
   34    0.15294
   35   -0.04169
   36   -0.42425
   37   -0.04160
   38   -0.42276
 Ene=     0.8326
 Spin= Alpha
 Occup= 0.0
    1   -0.03599
    2    0.36096
    3   -0.05898
    4    0.95757
    5    0.06650
    6   -0.01565
    7   -1.32904
    8    0.00795
    9    0.03275
   10   -0.03082
   11    0.05389
   12   -0.00654
   13    0.01288
   14    0.00209
   15    0.00824
   16    0.02873
   17   -0.10939
   18    0.55468
   19    0.17228
   20   -0.04498
   21   -0.00929
   22    0.16710
   23    0.12069
   24    0.00999
   25    0.12908
   26   -0.06100
   27   -0.03980
   28    0.03814
   29   -0.00059
   30   -0.00383
   31   -0.23949
   32    0.21614
   33    0.11315
   34   -0.18049
   35   -0.16245
   36   -0.17563
   37   -0.16070
   38   -0.17498
 Ene=     0.8379
 Spin= Alpha
 Occup= 0.0
    1    0.01492
    2   -0.08924
    3   -0.27634
    4   -0.12284
    5   -0.77126
    6   -0.08861
    7   -0.15025
    8    1.63590
    9    0.19830
   10   -0.03362
   11    0.09022
   12   -0.08166
   13    0.01955
   14    0.00078
   15    0.02341
   16   -0.03119
   17    0.15408
   18    0.06442
   19    0.11432
   20   -0.02566
   21   -0.00659
   22   -0.23687
   23   -0.31666
   24   -0.03130
   25    0.00724
   26    0.02668
   27    0.02934
   28   -0.01134
   29   -0.00063
   30    0.00001
   31   -0.07326
   32   -0.14217
   33    0.48832
   34    0.41177
   35   -0.20701
   36   -0.09396
   37   -0.20708
   38   -0.09369
 Ene=     0.8580
 Spin= Alpha
 Occup= 0.0
    1    0.00004
    2   -0.00099
    3    0.00118
    4    0.01675
    5   -0.08656
    6    0.72683
    7   -0.03803
    8    0.18845
    9   -1.58245
   10   -0.00288
   11   -0.01712
   12    0.01994
   13    0.00992
   14   -0.06458
   15    0.08127
   16   -0.00009
   17    0.00038
   18   -0.00153
   19    0.00796
   20   -0.03703
   21    0.31560
   22    0.00420
   23   -0.01932
   24    0.16207
   25   -0.00047
   26   -0.00297
   27    0.00344
   28    0.00085
   29   -0.00508
   30    0.01464
   31   -0.00018
   32   -0.00051
   33   -0.00011
   34    0.00032
   35   -0.42442
   36   -0.26974
   37    0.42466
   38    0.27034
 Ene=     1.0189
 Spin= Alpha
 Occup= 0.0
    1   -0.03203
    2    0.13657
    3   -0.61402
    4    0.28545
    5   -0.17397
    6   -0.02749
    7   -0.55573
    8    0.31070
    9    0.05011
   10   -0.12558
   11   -0.01587
   12    0.07778
   13   -0.12128
   14   -0.00803
   15   -0.00989
   16    0.01750
   17    0.05668
   18    0.17340
   19    0.73957
   20   -0.22358
   21   -0.04430
   22   -1.02394
   23   -0.18332
   24    0.00447
   25    0.06727
   26    0.12676
   27   -0.01499
   28    0.07396
   29    0.00611
   30    0.01735
   31    0.58409
   32   -0.19315
   33   -0.28985
   34    0.54237
   35    0.19721
   36   -0.32489
   37    0.19636
   38   -0.32239
 Ene=     1.0452
 Spin= Alpha
 Occup= 0.0
    1   -0.01798
    2    0.12143
    3   -0.60533
    4   -0.33044
    5    0.64911
    6    0.08791
    7    0.30578
    8   -1.33752
    9   -0.17030
   10   -0.07948
   11    0.08804
   12   -0.03196
   13    0.05705
   14    0.00855
   15    0.01496
   16   -0.02809
   17    0.12733
   18    0.09353
   19    0.41408
   20   -0.38108
   21   -0.05699
   22   -0.70490
   23    0.64893
   24    0.09635
   25    0.04338
   26   -0.01353
   27    0.06238
   28   -0.04498
   29   -0.00493
   30   -0.00925
   31   -0.24597
   32    0.12134
   33    0.41577
   34   -1.13169
   35   -0.38558
   36    0.79318
   37   -0.38943
   38    0.80037
 Ene=     1.0538
 Spin= Alpha
 Occup= 0.0
    1    0.00002
    2    0.00003
    3    0.00153
    4    0.02256
    5   -0.10126
    6    0.83589
    7   -0.03959
    8    0.18120
    9   -1.49189
   10    0.00607
   11    0.01217
   12   -0.01816
   13   -0.01685
   14    0.12689
   15   -0.05912
   16    0.00011
   17   -0.00102
   18    0.00064
   19   -0.01122
   20    0.04372
   21   -0.36428
   22    0.01691
   23   -0.06645
   24    0.54790
   25   -0.00315
   26    0.00033
   27    0.00210
   28    0.00759
   29   -0.06290
   30   -0.00202
   31    0.00117
   32   -0.00074
   33   -0.00142
   34    0.00331
   35    0.62251
   36   -1.36846
   37   -0.62140
   38    1.36483
 Ene=     1.0930
 Spin= Alpha
 Occup= 0.0
    1    0.00005
    2    0.00095
    3   -0.00245
    4    0.00105
    5   -0.00542
    6    0.05073
    7    0.01124
    8   -0.05138
    9    0.43544
   10    0.00545
   11    0.01548
   12   -0.02076
   13   -0.01605
   14    0.12047
   15   -0.07163
   16   -0.00001
   17    0.00017
   18    0.00021
   19    0.02261
   20   -0.10318
   21    0.89186
   22   -0.03013
   23    0.13504
   24   -1.16771
   25   -0.00327
   26    0.00382
   27   -0.00049
   28    0.00822
   29   -0.07505
   30   -0.01878
   31   -0.00008
   32    0.00057
   33    0.00149
   34   -0.00131
   35    0.34941
   36   -0.25070
   37   -0.35082
   38    0.25330
 Ene=     1.1220
 Spin= Alpha
 Occup= 0.0
    1    0.07863
    2   -0.73208
    3    1.66579
    4    0.23246
    5    0.11982
    6    0.00877
    7    0.37359
    8   -0.18820
    9   -0.03219
   10    0.00139
   11   -0.01864
   12    0.00376
   13   -0.02198
   14   -0.00239
   15   -0.00270
   16   -0.00260
   17    0.39877
   18   -1.02937
   19   -0.17707
   20   -0.42988
   21   -0.04548
   22    0.53777
   23    0.67906
   24    0.06513
   25    0.05767
   26    0.07173
   27    0.09182
   28    0.00680
   29    0.00173
   30   -0.00294
   31   -0.06141
   32   -0.15605
   33    0.59605
   34   -0.59586
   35    0.60881
   36   -0.50806
   37    0.60760
   38   -0.50661
 Ene=     1.1677
 Spin= Alpha
 Occup= 0.0
    1   -0.00458
    2   -0.61203
    3    1.11263
    4    0.24824
    5    0.42469
    6    0.04398
    7   -0.80800
    8   -0.30132
    9   -0.01679
   10   -0.11906
   11    0.12339
   12   -0.12415
   13   -0.01162
   14   -0.00177
   15    0.03492
   16    0.01736
   17   -0.41032
   18    0.72108
   19    0.00925
   20    0.36227
   21    0.04139
   22   -0.28459
   23   -0.98673
   24   -0.10637
   25   -0.09883
   26    0.02805
   27   -0.13654
   28   -0.05077
   29   -0.00710
   30    0.02374
   31    0.60692
   32   -0.02599
   33    0.65109
   34   -1.26227
   35   -0.08186
   36   -0.21616
   37   -0.08036
   38   -0.21578
 Ene=     1.2077
 Spin= Alpha
 Occup= 0.0
    1    0.01382
    2    0.72742
    3   -1.18122
    4   -0.14950
    5   -0.02416
    6    0.00056
    7    0.77768
    8    0.29988
    9    0.01609
   10    0.13145
   11    0.05995
   12   -0.03563
   13   -0.02308
   14   -0.00781
   15    0.01410
   16    0.02927
   17   -0.27365
   18    0.40124
   19   -0.41446
   20   -0.66170
   21   -0.06621
   22    0.79845
   23    0.74305
   24    0.06569
   25   -0.05776
   26    0.06500
   27   -0.12798
   28    0.03936
   29    0.00245
   30    0.02522
   31    0.75564
   32   -1.30260
   33    0.10669
   34    0.48825
   35   -0.15681
   36    0.59468
   37   -0.15554
   38    0.59233
 Ene=     1.2767
 Spin= Alpha
 Occup= 0.0
    1   -0.06975
    2   -1.32814
    3    2.87258
    4    0.10962
    5   -0.17566
    6   -0.02402
    7   -0.73119
    8   -0.12384
    9    0.00646
   10   -0.12094
   11   -0.13134
   12   -0.00150
   13    0.03862
   14    0.00841
   15   -0.01906
   16   -0.02631
   17   -0.87787
   18    1.79637
   19    0.04211
   20   -0.41242
   21   -0.04834
   22   -0.04449
   23    0.97460
   24    0.11292
   25   -0.23941
   26   -0.19136
   27   -0.07276
   28   -0.02715
   29    0.00168
   30   -0.01551
   31   -0.07336
   32   -1.02470
   33   -0.38855
   34   -0.44998
   35   -0.19438
   36   -0.74057
   37   -0.19517
   38   -0.74184
 Ene=     1.6259
 Spin= Alpha
 Occup= 0.0
    1   -0.09052
    2   -1.25419
    3    5.02739
    4    0.09994
    5    0.09166
    6    0.00807
    7    0.99785
    8    0.00809
    9   -0.02560
   10    0.10941
   11   -0.07949
   12   -0.17596
   13   -0.05496
   14   -0.01477
   15    0.01531
   16    0.07843
   17    1.24530
   18   -4.15684
   19   -0.19742
   20    0.00578
   21    0.00580
   22    1.72518
   23   -0.00945
   24   -0.04528
   25    0.25656
   26    0.33960
   27    0.03366
   28    0.12137
   29    0.00732
   30    0.03845
   31    0.28413
   32    0.15095
   33   -0.38278
   34   -0.64383
   35   -0.47246
   36   -0.36459
   37   -0.47211
   38   -0.36380
 Ene=     1.8061
 Spin= Alpha
 Occup= 0.0
    1   -0.00009
    2   -0.00110
    3    0.00463
    4    0.00354
    5   -0.01536
    6    0.12771
    7   -0.00012
    8    0.00424
    9   -0.03558
   10   -0.02093
   11    0.12613
   12   -0.10529
   13    0.03963
   14   -0.46096
   15   -0.60662
   16    0.00008
   17    0.00099
   18   -0.00352
   19    0.00213
   20   -0.01048
   21    0.08628
   22    0.00253
   23   -0.00407
   24    0.03362
   25    0.02253
   26    0.02056
   27   -0.04259
   28   -0.06156
   29    0.48857
   30   -0.09541
   31    0.00064
   32   -0.00018
   33   -0.00071
   34   -0.00044
   35    0.12388
   36   -0.10067
   37   -0.12456
   38    0.09982
 Ene=     1.8355
 Spin= Alpha
 Occup= 0.0
    1    0.00822
    2    0.03810
    3   -0.55632
    4   -0.07689
    5    0.09030
    6    0.01297
    7   -0.26146
    8   -0.04123
    9    0.00301
   10    0.15700
   11    0.11028
   12   -0.26165
   13   -0.63961
   14   -0.09025
   15    0.06815
   16   -0.02632
   17   -0.31981
   18    1.03835
   19    0.00965
   20    0.06180
   21    0.00748
   22   -0.32912
   23    0.28201
   24    0.04090
   25   -0.20048
   26   -0.09064
   27    0.13694
   28    0.53156
   29    0.07447
   30   -0.04372
   31   -0.28912
   32   -0.14575
   33    0.16234
   34   -0.01622
   35   -0.05170
   36    0.03186
   37   -0.05297
   38    0.03135
 Ene=     2.0352
 Spin= Alpha
 Occup= 0.0
    1   -0.00003
    2   -0.00035
    3    0.00167
    4    0.00095
    5   -0.00389
    6    0.03186
    7    0.01039
    8   -0.04461
    9    0.35998
   10   -0.01197
   11   -0.04252
   12    0.05447
   13    0.03745
   14   -0.25942
   15    0.20860
   16    0.00004
   17    0.00050
   18   -0.00186
   19    0.00161
   20   -0.00719
   21    0.05815
   22   -0.00364
   23    0.01954
   24   -0.16138
   25    0.00724
   26   -0.18060
   27    0.17355
   28    0.00374
   29    0.15120
   30    0.88708
   31    0.00031
   32    0.00015
   33   -0.00136
   34   -0.00090
   35    0.24124
   36    0.07212
   37   -0.24011
   38   -0.07160
 Ene=     2.2733
 Spin= Alpha
 Occup= 0.0
    1    0.00326
    2    0.12133
    3    0.16838
    4    0.14833
    5    0.08471
    6    0.00712
    7   -0.32869
    8    0.56093
    9    0.08224
   10   -0.37637
   11   -0.40419
   12    0.84707
   13    0.00222
   14    0.03349
   15   -0.16371
   16    0.01213
   17    0.40765
   18   -0.67510
   19   -0.25441
   20    0.05363
   21    0.01435
   22    0.30930
   23   -0.55012
   24   -0.07613
   25   -0.24710
   26   -0.11615
   27    0.51062
   28    0.25494
   29    0.06040
   30   -0.09548
   31    0.33394
   32    0.18344
   33    0.37722
   34    0.08551
   35   -0.30353
   36   -0.07215
   37   -0.31545
   38   -0.07247
 Ene=     2.3078
 Spin= Alpha
 Occup= 0.0
    1    0.00006
    2    0.00197
    3    0.00180
    4    0.00031
    5    0.00931
    6   -0.06911
    7   -0.01922
    8    0.06947
    9   -0.53203
   10    0.00371
   11    0.15698
   12   -0.15941
   13   -0.04871
   14    0.23210
   15   -0.76903
   16    0.00005
   17    0.00551
   18   -0.00701
   19   -0.00682
   20    0.01219
   21   -0.09917
   22    0.01141
   23   -0.03803
   24    0.27315
   25   -0.02857
   26   -0.07242
   27    0.10301
   28    0.07619
   29   -0.53663
   30    0.35426
   31    0.00250
   32    0.00218
   33    0.00365
   34    0.00099
   35   -0.43192
   36   -0.02749
   37    0.42348
   38    0.02568
 Ene=     2.3725
 Spin= Alpha
 Occup= 0.0
    1    0.00597
    2    0.14898
    3    0.06298
    4    0.15791
    5   -0.03811
    6   -0.00853
    7   -0.26363
    8   -0.45588
    9   -0.04577
   10   -0.64816
   11    0.75637
   12    0.02949
   13   -0.33326
   14   -0.01967
   15    0.11211
   16   -0.01983
   17    0.32152
   18   -0.06696
   19   -0.34053
   20   -0.08919
   21   -0.00152
   22    0.24265
   23    0.37626
   24    0.03724
   25   -0.28203
   26    0.30203
   27    0.08117
   28   -0.35322
   29   -0.02965
   30    0.03745
   31   -0.27670
   32    0.05380
   33   -0.51422
   34   -0.01989
   35    0.00651
   36   -0.00233
   37    0.00486
   38   -0.00285
 Ene=     2.6230
 Spin= Alpha
 Occup= 0.0
    1    0.03192
    2    0.11038
    3   -1.27658
    4   -0.15968
    5    0.01918
    6    0.00647
    7   -0.53982
    8   -0.02301
    9    0.01302
   10   -0.16968
   11   -0.24610
   12    0.45954
   13   -0.08250
   14    0.01162
   15   -0.09482
   16   -0.05346
   17   -0.47371
   18    1.81823
   19   -0.02137
   20    0.02068
   21    0.00308
   22   -0.60842
   23    0.41970
   24    0.06306
   25   -0.06474
   26    0.81753
   27   -0.86419
   28    0.23783
   29    0.00597
   30    0.22302
   31   -0.92190
   32   -0.03473
   33    0.30104
   34    0.02764
   35   -0.05395
   36    0.07598
   37   -0.05348
   38    0.07448
 Ene=     2.6556
 Spin= Alpha
 Occup= 0.0
    1   -0.00522
    2   -0.05886
    3    0.13385
    4   -0.02343
    5   -0.00372
    6    0.00009
    7    0.01263
    8   -0.13718
    9   -0.01677
   10    0.26827
   11   -0.53664
   12    0.24531
   13   -0.78642
   14   -0.09339
   15   -0.08816
   16    0.00033
   17   -0.03279
   18    0.05732
   19    0.01460
   20   -0.00590
   21   -0.00108
   22   -0.02010
   23    0.24018
   24    0.02900
   25    0.25561
   26   -0.17973
   27   -0.08250
   28   -0.72863
   29   -0.09673
   30    0.00635
   31    0.07543
   32   -0.11128
   33    0.36309
   34   -0.24419
   35   -0.21718
   36    0.10032
   37   -0.21641
   38    0.10005
 Ene=     2.7175
 Spin= Alpha
 Occup= 0.0
    1   -0.00010
    2   -0.00011
    3    0.00335
    4    0.00048
    5   -0.00010
    6    0.00124
    7    0.00615
    8   -0.02071
    9    0.17914
   10    0.04334
   11    0.02134
   12   -0.06484
   13   -0.11520
   14    0.95075
   15   -0.09759
   16    0.00015
   17    0.00105
   18   -0.00448
   19   -0.00035
   20    0.00174
   21   -0.01547
   22   -0.00404
   23    0.02603
   24   -0.22734
   25    0.03413
   26   -0.03864
   27    0.00489
   28   -0.08568
   29    0.76057
   30    0.18014
   31    0.00233
   32   -0.00044
   33   -0.00052
   34    0.00013
   35   -0.34476
   36    0.23613
   37    0.34475
   38   -0.23654
 Ene=     2.9877
 Spin= Alpha
 Occup= 0.0
    1    0.06570
    2   -0.34676
    3   -1.66709
    4   -0.67340
    5   -0.11771
    6    0.00355
    7   -0.96983
    8   -0.07904
    9    0.01566
   10   -0.84696
   11    0.48538
   12    0.44841
   13   -0.20119
   14    0.01516
   15    0.01026
   16   -0.07383
   17   -0.30186
   18    2.02333
   19   -0.24828
   20   -0.02278
   21    0.00369
   22   -1.28620
   23   -0.39914
   24   -0.01336
   25    1.12907
   26   -0.73620
   27   -0.51451
   28    0.30273
   29   -0.01328
   30   -0.03794
   31    0.24634
   32    0.04899
   33   -0.06033
   34    0.08986
   35    0.01164
   36   -0.01242
   37    0.01193
   38   -0.01244
 Ene=     3.9916
 Spin= Alpha
 Occup= 0.0
    1   -0.08250
    2    0.64652
    3   -0.84911
    4    0.13089
    5   -0.00204
    6   -0.00364
    7   -0.55969
    8   -0.03582
    9    0.01061
   10   -0.12158
   11   -0.35330
   12   -0.33951
   13    0.01742
   14   -0.00440
   15   -0.00238
   16   -0.46035
   17    1.12005
   18    3.24007
   19    0.13869
   20   -0.06154
   21   -0.01068
   22   -0.58578
   23    0.21086
   24    0.03935
   25   -1.44518
   26   -1.45993
   27   -1.52375
   28    0.01597
   29   -0.00044
   30    0.00828
   31    0.09243
   32   -0.57308
   33    0.10887
   34   -0.02072
   35    0.07775
   36   -0.06740
   37    0.07782
   38   -0.06794
 Ene=     4.4689
 Spin= Alpha
 Occup= 0.0
    1    0.47652
    2   -2.86814
    3   -2.37387
    4    0.12351
    5    0.00234
    6   -0.00296
    7    0.13478
    8    0.08557
    9    0.00672
   10    2.06043
   11    1.80301
   12    1.79959
   13    0.04745
   14   -0.00215
   15   -0.00078
   16   -0.08165
   17    0.20051
   18    0.83587
   19    0.20278
   20    0.01776
   21   -0.00316
   22   -0.09850
   23    0.03275
   24    0.00636
   25   -0.60993
   26   -0.23138
   27   -0.22708
   28   -0.06987
   29    0.00322
   30    0.00121
   31    0.00333
   32   -0.06896
   33   -0.08044
   34    0.52178
   35   -0.07294
   36    0.46217
   37   -0.07275
   38    0.46182
