6
	Energy:       0.3209260
C         -7.84488        1.90317        0.00123
N         -6.41868        2.18419       -0.00557
H         -6.29669        3.21597        0.11329
H         -8.00417        0.81241       -0.12358
H         -8.33949        2.44050       -0.83548
H         -8.28881        2.22692        0.96640
