[Molden Format]
[Title]
Written by TeraChem
[Atoms] Angs
C   1   6     -5.87286    2.04699    0.01938
C   2   6     -2.46883   -0.15095   -0.01941
H   3   1     -5.78084    1.36577   -0.88517
H   4   1     -6.90440    2.73108    0.03100
H   5   1     -5.77015    1.35060    0.91123
H   6   1     -2.56773    0.55153   -0.90695
H   7   1     -1.43715   -0.83550   -0.03121
H   8   1     -2.56466    0.52407    0.88939
H   9   1     -4.91073    2.65230    0.01863
H   10   1     -3.43083   -0.75629   -0.02688
[GTO]
    1 0
 s    6 1.00
         3047.524900             0.001835
          457.369510             0.014037
          103.948690             0.068843
           29.210155             0.232184
            9.286663             0.467941
            3.163927             0.362312
 s    3 1.00
            7.868272            -0.119332
            1.881288            -0.160854
            0.544249             1.143456
 s    1 1.00
            0.168714             1.000000
 p    3 1.00
            7.868272             0.068999
            1.881288             0.316424
            0.544249             0.744308
 p    1 1.00
            0.168714             1.000000
 d    1 1.00
            0.800000             1.000000

    2 0
 s    6 1.00
         3047.524900             0.001835
          457.369510             0.014037
          103.948690             0.068843
           29.210155             0.232184
            9.286663             0.467941
            3.163927             0.362312
 s    3 1.00
            7.868272            -0.119332
            1.881288            -0.160854
            0.544249             1.143456
 s    1 1.00
            0.168714             1.000000
 p    3 1.00
            7.868272             0.068999
            1.881288             0.316424
            0.544249             0.744308
 p    1 1.00
            0.168714             1.000000
 d    1 1.00
            0.800000             1.000000

    3 0
 s    3 1.00
           18.731137             0.033495
            2.825394             0.234727
            0.640122             0.813757
 s    1 1.00
            0.161278             1.000000

    4 0
 s    3 1.00
           18.731137             0.033495
            2.825394             0.234727
            0.640122             0.813757
 s    1 1.00
            0.161278             1.000000

    5 0
 s    3 1.00
           18.731137             0.033495
            2.825394             0.234727
            0.640122             0.813757
 s    1 1.00
            0.161278             1.000000

    6 0
 s    3 1.00
           18.731137             0.033495
            2.825394             0.234727
            0.640122             0.813757
 s    1 1.00
            0.161278             1.000000

    7 0
 s    3 1.00
           18.731137             0.033495
            2.825394             0.234727
            0.640122             0.813757
 s    1 1.00
            0.161278             1.000000

    8 0
 s    3 1.00
           18.731137             0.033495
            2.825394             0.234727
            0.640122             0.813757
 s    1 1.00
            0.161278             1.000000

    9 0
 s    3 1.00
           18.731137             0.033495
            2.825394             0.234727
            0.640122             0.813757
 s    1 1.00
            0.161278             1.000000

   10 0
 s    3 1.00
           18.731137             0.033495
            2.825394             0.234727
            0.640122             0.813757
 s    1 1.00
            0.161278             1.000000

[MO]
 Ene=    -9.7644
 Spin= Alpha
 Occup= 2.0
    1   -0.99224
    2   -0.04958
    3    0.01317
    4   -0.00021
    5    0.00015
    6    0.00000
    7    0.00063
    8   -0.00044
    9   -0.00001
   10    0.00951
   11    0.00949
   12    0.00948
   13   -0.00002
   14   -0.00000
   15    0.00000
   16    0.03300
   17    0.00169
   18   -0.00075
   19   -0.00001
   20    0.00001
   21    0.00000
   22    0.00007
   23   -0.00005
   24   -0.00000
   25   -0.00029
   26   -0.00029
   27   -0.00029
   28   -0.00000
   29   -0.00000
   30    0.00000
   31    0.00015
   32   -0.00245
   33    0.00012
   34   -0.00175
   35    0.00015
   36   -0.00245
   37   -0.00002
   38    0.00021
   39    0.00001
   40    0.00006
   41   -0.00002
   42    0.00021
   43    0.00015
   44   -0.00244
   45   -0.00001
   46    0.00020
 Ene=    -9.7644
 Spin= Alpha
 Occup= 2.0
    1    0.03298
    2    0.00161
    3   -0.00012
    4    0.00000
    5   -0.00000
    6   -0.00000
    7    0.00003
    8   -0.00002
    9   -0.00000
   10   -0.00034
   11   -0.00034
   12   -0.00034
   13    0.00000
   14    0.00000
   15   -0.00000
   16    0.99224
   17    0.04957
   18   -0.01315
   19   -0.00021
   20    0.00015
   21    0.00000
   22    0.00063
   23   -0.00043
   24   -0.00001
   25   -0.00951
   26   -0.00950
   27   -0.00948
   28    0.00002
   29    0.00000
   30   -0.00000
   31    0.00001
   32   -0.00005
   33   -0.00002
   34    0.00006
   35    0.00001
   36   -0.00005
   37   -0.00015
   38    0.00244
   39   -0.00012
   40    0.00175
   41   -0.00015
   42    0.00244
   43    0.00000
   44   -0.00004
   45   -0.00015
   46    0.00243
 Ene=    -0.2733
 Spin= Alpha
 Occup= 2.0
    1   -0.13857
    2    0.26775
    3    0.24574
    4    0.02133
    5   -0.01474
    6   -0.00028
    7   -0.00529
    8    0.00332
    9    0.00005
   10    0.00038
   11    0.00066
   12    0.00093
   13    0.00042
   14    0.00001
   15   -0.00001
   16   -0.13557
   17    0.26197
   18    0.24025
   19   -0.02097
   20    0.01445
   21    0.00029
   22    0.00510
   23   -0.00321
   24   -0.00005
   25    0.00037
   26    0.00065
   27    0.00091
   28    0.00041
   29    0.00001
   30   -0.00001
   31    0.09591
   32    0.04502
   33    0.07125
   34    0.03241
   35    0.09589
   36    0.04501
   37    0.09382
   38    0.04414
   39    0.06963
   40    0.03171
   41    0.09386
   42    0.04415
   43    0.09553
   44    0.04469
   45    0.09351
   46    0.04384
 Ene=    -0.2704
 Spin= Alpha
 Occup= 2.0
    1   -0.13691
    2    0.26390
    3    0.25124
    4    0.01960
    5   -0.01364
    6   -0.00026
    7   -0.00773
    8    0.00496
    9    0.00008
   10    0.00013
   11    0.00051
   12    0.00085
   13    0.00055
   14    0.00001
   15   -0.00001
   16    0.13987
   17   -0.26964
   18   -0.25650
   19    0.02013
   20   -0.01397
   21   -0.00028
   22   -0.00782
   23    0.00503
   24    0.00008
   25   -0.00013
   26   -0.00053
   27   -0.00087
   28   -0.00056
   29   -0.00001
   30    0.00001
   31    0.09424
   32    0.04002
   33    0.07103
   34    0.03050
   35    0.09422
   36    0.04001
   37   -0.09627
   38   -0.04098
   39   -0.07249
   40   -0.03117
   41   -0.09631
   42   -0.04100
   43    0.09378
   44    0.03947
   45   -0.09585
   46   -0.04045
 Ene=     0.0143
 Spin= Alpha
 Occup= 2.0
    1    0.00975
    2   -0.01479
    3   -0.04472
    4    0.23883
    5   -0.15037
    6   -0.00240
    7    0.10603
    8   -0.06618
    9   -0.00104
   10   -0.00591
   11    0.00126
   12    0.00689
   13    0.01051
   14    0.00017
   15   -0.00013
   16    0.00971
   17   -0.01472
   18   -0.04500
   19   -0.23348
   20    0.14856
   21    0.00200
   22   -0.10384
   23    0.06559
   24    0.00085
   25   -0.00583
   26    0.00125
   27    0.00681
   28    0.01024
   29    0.00018
   30   -0.00015
   31    0.06132
   32    0.07261
   33   -0.19411
   34   -0.25394
   35    0.06162
   36    0.07291
   37    0.06095
   38    0.07253
   39   -0.19038
   40   -0.24882
   41    0.06027
   42    0.07179
   43    0.06827
   44    0.07981
   45    0.06604
   46    0.07770
 Ene=     0.0188
 Spin= Alpha
 Occup= 2.0
    1   -0.00002
    2    0.00003
    3   -0.00003
    4    0.00044
    5    0.00890
    6   -0.29615
    7    0.00036
    8    0.00437
    9   -0.14803
   10    0.00031
   11   -0.00032
   12    0.00001
   13    0.00031
   14   -0.00338
   15    0.01776
   16   -0.00000
   17    0.00000
   18    0.00012
   19    0.00034
   20    0.00810
   21   -0.29354
   22    0.00029
   23    0.00397
   24   -0.14664
   25   -0.00018
   26    0.00050
   27   -0.00032
   28   -0.00016
   29    0.00335
   30   -0.01760
   31    0.15812
   32    0.17997
   33    0.00119
   34    0.00164
   35   -0.16305
   36   -0.18537
   37    0.16061
   38    0.18274
   39   -0.00091
   40   -0.00127
   41   -0.15779
   42   -0.17972
   43    0.00371
   44    0.00429
   45   -0.00186
   46   -0.00223
 Ene=     0.0190
 Spin= Alpha
 Occup= 2.0
    1   -0.00042
    2    0.00074
    3    0.00196
    4    0.16155
    5    0.24735
    6    0.00754
    7    0.08107
    8    0.12405
    9    0.00377
   10    0.01359
   11   -0.00250
   12   -0.01115
   13    0.01063
   14   -0.00001
   15   -0.00037
   16    0.00036
   17   -0.00065
   18   -0.00168
   19    0.16207
   20    0.24567
   21    0.00712
   22    0.08124
   23    0.12319
   24    0.00356
   25   -0.01351
   26    0.00249
   27    0.01107
   28   -0.01065
   29   -0.00015
   30    0.00009
   31   -0.09647
   32   -0.10994
   33    0.00199
   34    0.00257
   35   -0.08949
   36   -0.10201
   37    0.09037
   38    0.10302
   39   -0.00106
   40   -0.00133
   41    0.09433
   42    0.10754
   43    0.18424
   44    0.20873
   45   -0.18389
   46   -0.20843
 Ene=     0.0212
 Spin= Alpha
 Occup= 2.0
    1    0.00324
    2   -0.00553
    3    0.01004
    4    0.23861
    5   -0.15461
    6   -0.00444
    7    0.09666
    8   -0.06194
    9   -0.00197
   10   -0.00702
   11    0.00076
   12    0.00682
   13    0.01094
   14    0.00016
   15   -0.00002
   16   -0.00345
   17    0.00585
   18   -0.00904
   19    0.24181
   20   -0.15936
   21   -0.00415
   22    0.09804
   23   -0.06422
   24   -0.00181
   25    0.00722
   26   -0.00080
   27   -0.00703
   28   -0.01105
   29   -0.00017
   30    0.00004
   31    0.06737
   32    0.05689
   33   -0.19409
   34   -0.27188
   35    0.06549
   36    0.05478
   37   -0.06757
   38   -0.05712
   39    0.19774
   40    0.27673
   41   -0.06901
   42   -0.05881
   43    0.06971
   44    0.05841
   45   -0.06953
   46   -0.05842
 Ene=     0.0232
 Spin= Alpha
 Occup= 2.0
    1   -0.00002
    2    0.00003
    3    0.00008
    4   -0.00019
    5   -0.00509
    6    0.29885
    7   -0.00011
    8   -0.00269
    9    0.15657
   10   -0.00011
   11    0.00029
   12   -0.00018
   13   -0.00026
   14    0.00308
   15   -0.01799
   16   -0.00003
   17    0.00006
   18    0.00013
   19    0.00025
   20    0.00464
   21   -0.30143
   22    0.00009
   23    0.00246
   24   -0.15784
   25    0.00000
   26    0.00048
   27   -0.00049
   28   -0.00012
   29    0.00312
   30   -0.01814
   31   -0.16066
   32   -0.16888
   33    0.00013
   34    0.00017
   35    0.16260
   36    0.17089
   37    0.16306
   38    0.17152
   39    0.00040
   40    0.00054
   41   -0.16302
   42   -0.17150
   43   -0.00207
   44   -0.00217
   45   -0.00043
   46   -0.00045
 Ene=     0.0236
 Spin= Alpha
 Occup= 2.0
    1    0.00044
    2   -0.00069
    3   -0.00209
    4   -0.16020
    5   -0.25342
    6   -0.00459
    7   -0.08521
    8   -0.13314
    9   -0.00241
   10   -0.01379
   11    0.00223
   12    0.01164
   13   -0.01063
   14    0.00005
   15    0.00018
   16    0.00040
   17   -0.00062
   18   -0.00210
   19    0.16265
   20    0.25318
   21    0.00388
   22    0.08625
   23    0.13309
   24    0.00203
   25   -0.01379
   26    0.00224
   27    0.01163
   28   -0.01076
   29   -0.00011
   30   -0.00012
   31    0.09696
   32    0.10189
   33   -0.00505
   34   -0.00696
   35    0.09328
   36    0.09799
   37    0.09480
   38    0.09975
   39   -0.00357
   40   -0.00487
   41    0.09514
   42    0.10011
   43   -0.18520
   44   -0.19333
   45   -0.18645
   46   -0.19463
 Ene=     0.3902
 Spin= Alpha
 Occup= 2.0
    1    0.11546
    2   -0.12082
    3   -1.57658
    4    0.02832
    5   -0.01956
    6   -0.00035
    7    0.05880
    8   -0.03989
    9   -0.00063
   10    0.01523
   11    0.01200
   12    0.00942
   13   -0.00443
   14   -0.00008
   15    0.00005
   16    0.11547
   17   -0.12085
   18   -1.57633
   19   -0.02845
   20    0.01960
   21    0.00038
   22   -0.05897
   23    0.04000
   24    0.00068
   25    0.01524
   26    0.01201
   27    0.00942
   28   -0.00444
   29   -0.00008
   30    0.00005
   31    0.00194
   32    0.56673
   33    0.04903
   34    0.73341
   35    0.00198
   36    0.56678
   37    0.00201
   38    0.56677
   39    0.04910
   40    0.73345
   41    0.00195
   42    0.56664
   43    0.00243
   44    0.56900
   45    0.00240
   46    0.56880
 Ene=     0.4630
 Spin= Alpha
 Occup= 0.0
    1    0.10911
    2   -0.12010
    3   -1.46307
    4    0.15995
    5   -0.10181
    6   -0.00185
    7    0.22279
    8   -0.13398
    9   -0.00250
   10    0.01055
   11    0.01047
   12    0.01030
   13   -0.00006
   14   -0.00000
   15   -0.00000
   16   -0.10907
   17    0.12008
   18    1.46196
   19    0.16017
   20   -0.10194
   21   -0.00186
   22    0.22324
   23   -0.13433
   24   -0.00244
   25   -0.01055
   26   -0.01046
   27   -0.01030
   28    0.00007
   29    0.00000
   30    0.00000
   31    0.03320
   32    0.43292
   33    0.03159
   34    1.00058
   35    0.03327
   36    0.43322
   37   -0.03331
   38   -0.43270
   39   -0.03171
   40   -1.00064
   41   -0.03322
   42   -0.43242
   43    0.03377
   44    0.41081
   45   -0.03372
   46   -0.41022
 Ene=     0.5011
 Spin= Alpha
 Occup= 0.0
    1   -0.01822
    2    0.00605
    3    0.46668
    4    0.23116
    5   -0.15784
    6   -0.00269
    7    0.75845
    8   -0.51719
    9   -0.00881
   10    0.00065
   11   -0.00233
   12   -0.00478
   13   -0.00407
   14   -0.00007
   15    0.00005
   16   -0.01833
   17    0.00614
   18    0.46855
   19   -0.23118
   20    0.15768
   21    0.00280
   22   -0.75847
   23    0.51668
   24    0.00919
   25    0.00065
   26   -0.00234
   27   -0.00479
   28   -0.00408
   29   -0.00007
   30    0.00005
   31   -0.00071
   32   -0.56360
   33    0.05852
   34    0.98636
   35   -0.00068
   36   -0.56358
   37   -0.00067
   38   -0.56363
   39    0.05857
   40    0.98515
   41   -0.00072
   42   -0.56393
   43    0.00047
   44   -0.54392
   45    0.00038
   46   -0.54503
 Ene=     0.5164
 Spin= Alpha
 Occup= 0.0
    1   -0.00622
    2    0.00686
    3    0.11421
    4   -0.12094
    5   -0.24627
    6   -0.00130
    7   -0.38044
    8   -0.79067
    9   -0.00537
   10    0.00417
   11   -0.00063
   12   -0.00463
   13    0.00283
   14   -0.00005
   15    0.00001
   16    0.00621
   17   -0.00686
   18   -0.11406
   19   -0.12052
   20   -0.24603
   21    0.00170
   22   -0.37895
   23   -0.78975
   24    0.00649
   25   -0.00415
   26    0.00063
   27    0.00461
   28   -0.00281
   29   -0.00003
   30   -0.00019
   31   -0.02728
   32   -0.66194
   33    0.00820
   34    0.10846
   35   -0.02688
   36   -0.66020
   37    0.02804
   38    0.67994
   39   -0.00819
   40   -0.10927
   41    0.02593
   42    0.64035
   43    0.05097
   44    1.03692
   45   -0.05075
   46   -1.03455
 Ene=     0.5173
 Spin= Alpha
 Occup= 0.0
    1   -0.00021
    2    0.00022
    3    0.00384
    4   -0.00083
    5    0.00183
    6   -0.27523
    7   -0.00166
    8    0.00656
    9   -0.87863
   10    0.00000
   11    0.00005
   12   -0.00010
   13   -0.00007
   14    0.00059
   15   -0.00580
   16    0.00022
   17   -0.00022
   18   -0.00409
   19   -0.00261
   20   -0.00049
   21   -0.27492
   22   -0.00856
   23   -0.00281
   24   -0.87743
   25   -0.00008
   26   -0.00015
   27    0.00027
   28   -0.00003
   29   -0.00058
   30    0.00577
   31   -0.04566
   32   -0.99458
   33    0.00025
   34    0.00269
   35    0.04582
   36    0.99015
   37   -0.04497
   38   -0.97689
   39   -0.00026
   40   -0.00213
   41    0.04626
   42    1.00485
   43   -0.00028
   44   -0.00420
   45   -0.00116
   46   -0.01948
 Ene=     0.5192
 Spin= Alpha
 Occup= 0.0
    1   -0.05582
    2    0.06307
    3    0.96508
    4    0.21268
    5   -0.09676
    6   -0.00088
    7    0.80107
    8   -0.38965
    9   -0.00404
   10   -0.00023
   11   -0.00367
   12   -0.00652
   13   -0.00626
   14   -0.00010
   15    0.00009
   16    0.05585
   17   -0.06308
   18   -0.96580
   19    0.21262
   20   -0.09667
   21   -0.00165
   22    0.80062
   23   -0.38916
   24   -0.00694
   25    0.00023
   26    0.00367
   27    0.00653
   28    0.00627
   29    0.00011
   30   -0.00006
   31   -0.01226
   32   -0.65105
   33    0.05904
   34    0.70508
   35   -0.01274
   36   -0.65993
   37    0.01247
   38    0.65574
   39   -0.05905
   40   -0.70405
   41    0.01251
   42    0.65495
   43   -0.02336
   44   -0.88977
   45    0.02338
   46    0.88996
 Ene=     0.5414
 Spin= Alpha
 Occup= 0.0
    1   -0.00006
    2    0.00006
    3    0.00113
    4   -0.00003
    5    0.00429
    6   -0.25548
    7   -0.00076
    8    0.01426
    9   -0.93234
   10   -0.00007
   11    0.00016
   12   -0.00010
   13   -0.00011
   14   -0.00107
   15   -0.01091
   16    0.00004
   17   -0.00007
   18   -0.00036
   19    0.00242
   20   -0.00114
   21    0.25587
   22    0.00819
   23   -0.00546
   24    0.93347
   25    0.00007
   26    0.00029
   27   -0.00036
   28    0.00007
   29   -0.00108
   30   -0.01090
   31   -0.07977
   32   -1.01569
   33    0.00007
   34   -0.00003
   35    0.08037
   36    1.02506
   37    0.07969
   38    1.01485
   39    0.00001
   40   -0.00068
   41   -0.08053
   42   -1.02827
   43   -0.00063
   44   -0.01112
   45    0.00095
   46    0.01468
 Ene=     0.5434
 Spin= Alpha
 Occup= 0.0
    1   -0.00023
    2   -0.00046
    3    0.00462
    4   -0.14613
    5   -0.20980
    6   -0.00340
    7   -0.52601
    8   -0.77106
    9   -0.01108
   10    0.00695
   11    0.00167
   12   -0.00884
   13    0.00662
   14   -0.00005
   15   -0.00002
   16   -0.00024
   17   -0.00043
   18    0.00453
   19    0.14628
   20    0.21032
   21   -0.00038
   22    0.52639
   23    0.77275
   24    0.00017
   25    0.00694
   26    0.00167
   27   -0.00883
   28    0.00662
   29    0.00007
   30    0.00029
   31   -0.04817
   32   -0.59531
   33    0.00024
   34   -0.01607
   35   -0.04710
   36   -0.57757
   37   -0.04847
   38   -0.59966
   39    0.00020
   40   -0.01540
   41   -0.04689
   42   -0.57561
   43    0.09379
   44    1.18233
   45    0.09382
   46    1.18417
 Ene=     0.9110
 Spin= Alpha
 Occup= 0.0
    1    0.00000
    2   -0.00000
    3    0.00020
    4    0.01707
    5    0.01689
    6    0.53561
    7   -0.03133
    8   -0.03079
    9   -0.97111
   10    0.00278
   11    0.00082
   12   -0.00357
   13    0.00164
   14    0.00981
   15   -0.07478
   16    0.00001
   17   -0.00004
   18   -0.00037
   19    0.01748
   20    0.01806
   21    0.53263
   22   -0.03172
   23   -0.03224
   24   -0.96644
   25   -0.00322
   26   -0.00165
   27    0.00481
   28   -0.00225
   29   -0.00980
   30    0.07438
   31   -0.31990
   32   -0.08727
   33    0.00025
   34   -0.00031
   35    0.30251
   36    0.08243
   37   -0.29949
   38   -0.08157
   39   -0.00046
   40    0.00029
   41    0.32012
   42    0.08747
   43    0.01740
   44    0.00467
   45   -0.02041
   46   -0.00541
 Ene=     0.9113
 Spin= Alpha
 Occup= 0.0
    1    0.00017
    2    0.00002
    3   -0.00434
    4   -0.29013
    5   -0.45027
    6    0.02356
    7    0.52793
    8    0.81475
    9   -0.04317
   10   -0.05547
   11    0.00583
   12    0.04941
   13   -0.04461
   14    0.00083
   15   -0.00379
   16   -0.00004
   17   -0.00054
   18    0.00273
   19   -0.29275
   20   -0.44615
   21    0.02458
   22    0.53280
   23    0.80801
   24   -0.04425
   25    0.05496
   26   -0.00591
   27   -0.04901
   28    0.04486
   29   -0.00009
   30    0.00494
   31    0.16561
   32    0.04695
   33   -0.00457
   34    0.00122
   35    0.19586
   36    0.05530
   37   -0.19699
   38   -0.05463
   39    0.00228
   40   -0.00216
   41   -0.16161
   42   -0.04490
   43   -0.35759
   44   -0.09653
   45    0.35743
   46    0.09764
 Ene=     0.9167
 Spin= Alpha
 Occup= 0.0
    1    0.01771
    2   -0.06638
    3   -0.20203
    4    0.54487
    5   -0.27326
    6   -0.00801
    7   -0.97349
    8    0.49563
    9    0.01380
   10   -0.03850
   11   -0.00547
   12    0.02116
   13    0.06093
   14    0.00086
   15   -0.00035
   16    0.01776
   17   -0.06628
   18   -0.20278
   19   -0.54255
   20    0.27619
   21    0.00771
   22    0.96881
   23   -0.50085
   24   -0.01323
   25   -0.03881
   26   -0.00544
   27    0.02149
   28    0.06054
   29    0.00097
   30   -0.00030
   31    0.10538
   32    0.16888
   33   -0.29658
   34   -0.18234
   35    0.10325
   36    0.16845
   37    0.10449
   38    0.16898
   39   -0.29596
   40   -0.18208
   41    0.10671
   42    0.16933
   43    0.16755
   44    0.18995
   45    0.16509
   46    0.18910
 Ene=     0.9213
 Spin= Alpha
 Occup= 0.0
    1   -0.00216
    2    0.00944
    3    0.02374
    4    0.26820
    5    0.53777
    6    0.06880
    7   -0.41266
    8   -0.86158
    9   -0.10991
   10    0.05325
   11   -0.00493
   12   -0.04488
   13    0.03151
   14    0.00062
   15   -0.00695
   16   -0.00217
   17    0.00938
   18    0.02379
   19   -0.26958
   20   -0.53940
   21   -0.06839
   22    0.41517
   23    0.86480
   24    0.10870
   25    0.05348
   26   -0.00490
   27   -0.04518
   28    0.03178
   29    0.00123
   30   -0.00585
   31   -0.19076
   32   -0.06913
   33    0.03882
   34    0.02055
   35   -0.13374
   36   -0.05377
   37   -0.13725
   38   -0.05474
   39    0.03856
   40    0.02077
   41   -0.18903
   42   -0.06871
   43    0.27831
   44    0.05783
   45    0.28009
   46    0.05838
 Ene=     0.9214
 Spin= Alpha
 Occup= 0.0
    1   -0.00030
    2    0.00125
    3    0.00333
    4    0.02375
    5    0.06517
    6   -0.59903
    7   -0.03594
    8   -0.10490
    9    0.95354
   10    0.00593
   11   -0.00149
   12   -0.00400
   13    0.00372
   14   -0.00940
   15    0.06459
   16   -0.00030
   17    0.00123
   18    0.00326
   19   -0.02361
   20   -0.06497
   21    0.60169
   22    0.03541
   23    0.10419
   24   -0.95843
   25    0.00551
   26   -0.00221
   27   -0.00288
   28    0.00314
   29   -0.00939
   30    0.06505
   31    0.23904
   32    0.06259
   33    0.00536
   34    0.00316
   35   -0.27572
   36   -0.07748
   37   -0.27604
   38   -0.07756
   39    0.00523
   40    0.00326
   41    0.24232
   42    0.06351
   43    0.03011
   44    0.00574
   45    0.02720
   46    0.00501
 Ene=     1.0545
 Spin= Alpha
 Occup= 0.0
    1    0.02670
    2   -0.05855
    3   -0.02577
    4   -0.47966
    5    0.30428
    6    0.00516
    7    0.86262
    8   -0.55456
    9   -0.00921
   10    0.06361
   11    0.00607
   12   -0.03946
   13   -0.07859
   14   -0.00134
   15    0.00092
   16   -0.02663
   17    0.05852
   18    0.02495
   19   -0.48027
   20    0.30511
   21    0.00510
   22    0.86322
   23   -0.55596
   24   -0.00910
   25   -0.06363
   26   -0.00611
   27    0.03950
   28    0.07861
   29    0.00136
   30   -0.00095
   31    0.02518
   32   -0.10090
   33    0.50555
   34    0.09230
   35    0.02512
   36   -0.10142
   37   -0.02486
   38    0.10209
   39   -0.50545
   40   -0.09262
   41   -0.02495
   42    0.10134
   43    0.02996
   44   -0.11416
   45   -0.02974
   46    0.11394
 Ene=     1.1805
 Spin= Alpha
 Occup= 0.0
    1    0.04073
    2   -0.28445
    3    0.37467
    4    0.27922
    5   -0.19231
    6   -0.00338
    7   -0.42558
    8    0.29294
    9    0.00526
   10    0.05867
   11   -0.00520
   12   -0.05529
   13   -0.08603
   14   -0.00147
   15    0.00096
   16    0.04083
   17   -0.28604
   18    0.37776
   19   -0.28162
   20    0.19322
   21    0.00363
   22    0.42943
   23   -0.29445
   24   -0.00566
   25    0.05881
   26   -0.00521
   27   -0.05553
   28   -0.08651
   29   -0.00149
   30    0.00097
   31    0.09339
   32    0.06814
   33    0.80547
   34   -1.06882
   35    0.09358
   36    0.06750
   37    0.09387
   38    0.06725
   39    0.80941
   40   -1.07530
   41    0.09351
   42    0.06828
   43    0.09983
   44    0.05434
   45    0.09933
   46    0.05583
 Ene=     1.2007
 Spin= Alpha
 Occup= 0.0
    1   -0.01729
    2    0.26180
    3   -0.49200
    4   -0.48879
    5    0.30454
    6    0.00565
    7    0.75456
    8   -0.47665
    9   -0.00876
   10   -0.04193
   11    0.01186
   12    0.05387
   13    0.07886
   14    0.00129
   15   -0.00083
   16    0.01705
   17   -0.26037
   18    0.49027
   19   -0.48710
   20    0.30331
   21    0.00583
   22    0.75199
   23   -0.47476
   24   -0.00900
   25    0.04156
   26   -0.01180
   27   -0.05356
   28   -0.07841
   29   -0.00133
   30    0.00076
   31    0.01969
   32   -0.13442
   33   -0.69389
   34    1.23296
   35    0.01936
   36   -0.13372
   37   -0.01968
   38    0.13274
   39    0.68964
   40   -1.22708
   41   -0.02041
   42    0.13411
   43    0.04239
   44   -0.17082
   45   -0.04308
   46    0.17063
 Ene=     1.2250
 Spin= Alpha
 Occup= 0.0
    1    0.00080
    2    0.00306
    3   -0.01251
    4    0.31547
    5    0.51593
    6    0.00109
    7   -0.41475
    8   -0.68761
    9   -0.00119
   10   -0.09122
   11    0.00626
   12    0.08617
   13   -0.07425
   14    0.00057
   15   -0.00041
   16   -0.00080
   17   -0.00299
   18    0.01243
   19    0.31468
   20    0.51579
   21   -0.00432
   22   -0.41362
   23   -0.68735
   24    0.00546
   25    0.09114
   26   -0.00630
   27   -0.08604
   28    0.07402
   29    0.00047
   30    0.00390
   31    0.29783
   32   -0.51603
   33   -0.01174
   34    0.03605
   35    0.29901
   36   -0.51898
   37   -0.30844
   38    0.53456
   39    0.01243
   40   -0.03707
   41   -0.28798
   42    0.49959
   43   -0.57222
   44    1.00712
   45    0.57117
   46   -1.00529
 Ene=     1.2265
 Spin= Alpha
 Occup= 0.0
    1   -0.00002
    2    0.00008
    3   -0.00003
    4   -0.00428
    5    0.00372
    6   -0.60482
    7    0.00579
    8   -0.00472
    9    0.80690
   10    0.00017
   11    0.00188
   12   -0.00204
   13   -0.00076
   14    0.01269
   15   -0.12599
   16    0.00001
   17   -0.00004
   18    0.00003
   19   -0.00751
   20   -0.00037
   21   -0.60451
   22    0.00982
   23    0.00027
   24    0.80644
   25   -0.00187
   26   -0.00316
   27    0.00504
   28   -0.00124
   29   -0.01268
   30    0.12582
   31   -0.50349
   32    0.88686
   33   -0.00020
   34    0.00001
   35    0.50264
   36   -0.88492
   37   -0.49690
   38    0.87525
   39    0.00047
   40   -0.00048
   41    0.50847
   42   -0.89510
   43    0.00075
   44   -0.00188
   45   -0.01177
   46    0.02020
 Ene=     1.2699
 Spin= Alpha
 Occup= 0.0
    1   -0.00292
    2    0.03123
    3   -0.04929
    4    0.02080
    5   -0.01911
    6    0.53723
    7   -0.02480
    8    0.02439
    9   -0.78029
   10    0.00352
   11   -0.00122
   12    0.00085
   13   -0.00231
   14   -0.02134
   15    0.14482
   16   -0.00287
   17    0.03080
   18   -0.04862
   19   -0.02429
   20    0.01358
   21   -0.53753
   22    0.03016
   23   -0.01602
   24    0.78068
   25    0.00189
   26   -0.00281
   27    0.00403
   28   -0.00422
   29   -0.02135
   30    0.14480
   31    0.50699
   32   -0.95454
   33    0.00442
   34   -0.01586
   35   -0.56230
   36    1.01896
   37   -0.55670
   38    1.00824
   39    0.00448
   40   -0.01575
   41    0.51301
   42   -0.96588
   43   -0.02465
   44    0.02590
   45   -0.03529
   46    0.04686
 Ene=     1.2706
 Spin= Alpha
 Occup= 0.0
    1   -0.05056
    2    0.54385
    3   -0.86044
    4    0.35038
    5   -0.18054
    6   -0.03398
    7   -0.41747
    8    0.20025
    9    0.04817
   10    0.05096
   11    0.01676
   12   -0.01263
   13   -0.06911
   14    0.00021
   15   -0.00752
   16   -0.05057
   17    0.54358
   18   -0.85985
   19   -0.35039
   20    0.18044
   21    0.03480
   22    0.41735
   23   -0.20023
   24   -0.04936
   25    0.05097
   26    0.01683
   27   -0.01276
   28   -0.06906
   29    0.00008
   30   -0.00782
   31   -0.46657
   32    0.53074
   33    0.07298
   34   -0.26890
   35   -0.40602
   36    0.41919
   37   -0.40516
   38    0.41744
   39    0.07293
   40   -0.26890
   41   -0.46762
   42    0.53267
   43   -0.51276
   44    0.61654
   45   -0.51254
   46    0.61584
 Ene=     1.2730
 Spin= Alpha
 Occup= 0.0
    1    0.00409
    2   -0.05718
    3    0.09871
    4    0.27507
    5    0.45944
    6    0.00701
    7   -0.41244
    8   -0.66698
    9   -0.01036
   10   -0.11327
   11    0.01147
   12    0.09476
   13   -0.08309
   14    0.00063
   15    0.00074
   16    0.00409
   17   -0.05708
   18    0.09854
   19   -0.27541
   20   -0.46008
   21   -0.00078
   22    0.41289
   23    0.66781
   24    0.00077
   25   -0.11337
   26    0.01152
   27    0.09483
   28   -0.08313
   29   -0.00069
   30   -0.00264
   31    0.35074
   32   -0.62795
   33   -0.00211
   34    0.00716
   35    0.34246
   36   -0.61160
   37    0.35208
   38   -0.63034
   39   -0.00237
   40    0.00736
   41    0.34179
   42   -0.61032
   43   -0.57867
   44    1.09927
   45   -0.57927
   46    1.10033
 Ene=     1.3509
 Spin= Alpha
 Occup= 0.0
    1    0.04631
    2   -0.64123
    3    1.24525
    4   -0.08309
    5    0.04783
    6    0.00115
    7   -0.02467
    8    0.03001
    9    0.00005
   10   -0.07099
   11   -0.01498
   12    0.03013
   13    0.08141
   14    0.00135
   15   -0.00087
   16   -0.04633
   17    0.64082
   18   -1.24425
   19   -0.08321
   20    0.04780
   21    0.00094
   22   -0.02454
   23    0.03004
   24    0.00050
   25    0.07102
   26    0.01494
   27   -0.03018
   28   -0.08146
   29   -0.00142
   30    0.00094
   31    0.49411
   32   -0.58354
   33    0.00960
   34   -0.14141
   35    0.49370
   36   -0.58276
   37   -0.49404
   38    0.58317
   39   -0.00938
   40    0.14088
   41   -0.49398
   42    0.58293
   43    0.50643
   44   -0.60927
   45   -0.50653
   46    0.60920
 Ene=     1.4513
 Spin= Alpha
 Occup= 0.0