[Molden Format]
[Title]
Written by TeraChem
[Atoms] Angs
C   1   6     -3.32365    2.06583    0.00040
H   2   1     -2.35150    1.42566    0.21284
H   3   1     -3.27030    2.50961    1.09566
H   4   1     -3.37465    1.62094   -1.09481
H   5   1     -4.29549    2.70533   -0.21409
[GTO]
    1 0
 s    6 1.00
         3047.524900             0.001835
          457.369510             0.014037
          103.948690             0.068843
           29.210155             0.232184
            9.286663             0.467941
            3.163927             0.362312
 s    3 1.00
            7.868272            -0.119332
            1.881288            -0.160854
            0.544249             1.143456
 s    1 1.00
            0.168714             1.000000
 p    3 1.00
            7.868272             0.068999
            1.881288             0.316424
            0.544249             0.744308
 p    1 1.00
            0.168714             1.000000
 d    1 1.00
            0.800000             1.000000

    2 0
 s    3 1.00
           18.731137             0.033495
            2.825394             0.234727
            0.640122             0.813757
 s    1 1.00
            0.161278             1.000000

    3 0
 s    3 1.00
           18.731137             0.033495
            2.825394             0.234727
            0.640122             0.813757
 s    1 1.00
            0.161278             1.000000

    4 0
 s    3 1.00
           18.731137             0.033495
            2.825394             0.234727
            0.640122             0.813757
 s    1 1.00
            0.161278             1.000000

    5 0
 s    3 1.00
           18.731137             0.033495
            2.825394             0.234727
            0.640122             0.813757
 s    1 1.00
            0.161278             1.000000

[MO]
 Ene=   -11.0163
 Spin= Alpha
 Occup= 2.0
    1    0.99285
    2    0.04792
    3   -0.01005
    4    0.00000
    5   -0.00000
    6   -0.00000
    7   -0.00000
    8    0.00000
    9    0.00000
   10   -0.00937
   11   -0.00950
   12   -0.00925
   13   -0.00027
   14    0.00012
   15    0.00016
   16   -0.00029
   17    0.00152
   18   -0.00029
   19    0.00152
   20   -0.00029
   21    0.00152
   22   -0.00029
   23    0.00152
 Ene=    -1.4147
 Spin= Alpha
 Occup= 2.0
    1    0.20467
    2   -0.44903
    3   -0.41222
    4   -0.00034
    5    0.00029
    6    0.00024
    7   -0.00024
    8    0.00022
    9    0.00018
   10   -0.00648
   11    0.00495
   12   -0.01647
   13    0.02320
   14   -0.01026
   15   -0.01356
   16   -0.12848
   17   -0.00363
   18   -0.12824
   19   -0.00368
   20   -0.12845
   21   -0.00363
   22   -0.12821
   23   -0.00369
 Ene=    -1.1526
 Spin= Alpha
 Occup= 2.0
    1    0.00002
    2   -0.00004
    3   -0.00005
    4    0.31570
    5   -0.05101
    6    0.42437
    7    0.17339
    8   -0.02802
    9    0.23307
   10    0.00001
   11   -0.00001
   12   -0.00000
   13    0.00001
   14    0.00002
   15    0.00000
   16    0.16320
   17    0.01590
   18    0.17430
   19    0.01689
   20   -0.17403
   21   -0.01695
   22   -0.16348
   23   -0.01583
 Ene=    -1.1525
 Spin= Alpha
 Occup= 2.0
    1   -0.00026
    2    0.00065
    3    0.00064
    4   -0.30244
    5    0.34617
    6    0.26660
    7   -0.16609
    8    0.19011
    9    0.14641
   10   -0.00001
   11   -0.00005
   12    0.00003
   13    0.00006
   14    0.00013
   15   -0.00007
   16   -0.17415
   17   -0.01700
   18    0.16332
   19    0.01582
   20   -0.16335
   21   -0.01594
   22    0.17417
   23    0.01687
 Ene=    -0.8199
 Spin= Alpha
 Occup= 0.0
    1   -0.00004
    2    0.00013
    3    0.00012
    4   -0.38139
    5   -0.50497
    6    0.22303
    7   -0.25689
    8   -0.34015
    9    0.15022
   10   -0.00004
   11    0.00005
   12   -0.00002
   13   -0.00001
   14    0.00003
   15    0.00001
   16   -0.00001
   17    0.00000
   18   -0.00007
   19   -0.00004
   20   -0.00007
   21   -0.00005
   22   -0.00001
   23    0.00001
 Ene=    -0.6910
 Spin= Alpha
 Occup= 0.0
    1    0.00000
    2   -0.00001
    3   -0.00001
    4   -0.00005
    5    0.00007
    6   -0.00014
    7    0.00019
    8    0.00001
    9    0.00014
   10    0.05517
   11    0.01241
   12   -0.06758
   13   -0.04362
   14    0.01017
   15   -0.04214
   16    0.30015
   17    0.42015
   18   -0.29963
   19   -0.41927
   20   -0.30011
   21   -0.42008
   22    0.29960
   23    0.41922
 Ene=    -0.5164
 Spin= Alpha
 Occup= 0.0
    1    0.15621
    2   -0.41394
    3   -1.49143
    4   -0.00084
    5    0.00074
    6    0.00068
    7   -0.00112
    8    0.00091
    9    0.00088
   10    0.00521
   11   -0.00269
   12    0.01211
   13   -0.01603
   14    0.00709
   15    0.00937
   16    0.15994
   17    0.62381
   18    0.15982
   19    0.62202
   20    0.15997
   21    0.62375
   22    0.15982
   23    0.62191
 Ene=    -0.3874
 Spin= Alpha
 Occup= 0.0
    1    0.00006
    2   -0.00018
    3   -0.00061
    4    0.45790
    5   -0.15640
    6    0.42891
    7    0.70352
    8   -0.24029
    9    0.65900
   10    0.00005
   11    0.00000
   12   -0.00003
   13   -0.00006
   14    0.00003
   15   -0.00004
   16   -0.12096
   17   -1.08786
   18   -0.08073
   19   -0.72547
   20    0.08065
   21    0.72486
   22    0.12134
   23    1.08939
 Ene=    -0.3873
 Spin= Alpha
 Occup= 0.0
    1   -0.00025
    2    0.00071
    3    0.00269
    4   -0.27081
    5    0.39601
    6    0.43352
    7   -0.41602
    8    0.60837
    9    0.66601
   10   -0.00002
   11    0.00005
   12   -0.00010
   13    0.00002
   14   -0.00015
   15    0.00001
   16    0.08048
   17    0.72429
   18   -0.12145
   19   -1.08976
   20    0.12088
   21    1.08756
   22   -0.08097
   23   -0.72611
 Ene=    -0.0851
 Spin= Alpha
 Occup= 0.0
    1   -0.00002
    2    0.00006
    3    0.00017
    4   -0.57701
    5   -0.76397
    6    0.33742
    7    0.64221
    8    0.85026
    9   -0.37551
   10   -0.00001
   11    0.00001
   12   -0.00002
   13    0.00001
   14    0.00000
   15   -0.00001
   16   -0.00001
   17   -0.00012
   18   -0.00005
   19   -0.00007
   20   -0.00003
   21   -0.00004
   22   -0.00001
   23   -0.00006
 Ene=     0.0941
 Spin= Alpha
 Occup= 0.0
    1   -0.07927
    2   -0.54173
    3    1.09818
    4    0.00141
    5   -0.00146
    6   -0.00111
    7   -0.00412
    8    0.00475
    9    0.00339
   10   -0.08312
   11    0.01340
   12   -0.16745
   13    0.19585
   14   -0.08658
   15   -0.11451
   16   -0.53539
   17    0.18964
   18   -0.53670
   19    0.18445
   20   -0.53553
   21    0.18942
   22   -0.53683
   23    0.18420
 Ene=     0.1364
 Spin= Alpha
 Occup= 0.0
    1   -0.00000
    2    0.00005
    3   -0.00009
    4    0.00023
    5    0.00000
    6    0.00052
    7   -0.00034
    8   -0.00019
    9   -0.00123
   10   -0.15981
   11   -0.03596
   12    0.19576
   13    0.12636
   14   -0.02945
   15    0.12208
   16   -0.48724
   17    1.06858
   18    0.48500
   19   -1.06422
   20    0.48703
   21   -1.06874
   22   -0.48484
   23    1.06451
 Ene=     0.1746
 Spin= Alpha
 Occup= 0.0
    1    0.00015
    2    0.00339
    3   -0.00721
    4    0.87315
    5   -0.54991
    6    0.24808
    7   -2.74310
    8    1.72769
    9   -0.77911
   10    0.00031
   11    0.00020
   12    0.00022
   13   -0.00057
   14   -0.00024
   15    0.00047
   16   -0.10618
   17    2.18470
   18   -0.00615
   19    0.12888
   20    0.00693
   21   -0.12497
   22    0.10779
   23   -2.18422
 Ene=     0.1746
 Spin= Alpha
 Occup= 0.0
    1   -0.00015
    2   -0.00338
    3    0.00707
    4   -0.00384
    5    0.43120
    6    0.96972
    7    0.01227
    8   -1.35486
    9   -3.04658
   10   -0.00013
   11   -0.00023
   12   -0.00035
   13    0.00058
   14    0.00045
   15   -0.00055
   16    0.00558
   17   -0.12873
   18   -0.10777
   19    2.18437
   20    0.10603
   21   -2.18462
   22   -0.00619
   23    0.12470
 Ene=     0.2719
 Spin= Alpha
 Occup= 0.0
    1   -0.00008
    2   -0.09309
    3    0.19830
    4   -0.02501
    5    0.02861
    6    0.02201
    7   -0.57892
    8    0.66144
    9    0.50756
   10   -0.00340
   11   -0.00293
   12   -0.00364
   13   -0.00083
   14   -0.00161
   15    0.00105
   16    0.71967
   17   -0.18652
   18   -0.64909
   19    0.08149
   20    0.67335
   21   -0.17789
   22   -0.69583
   23    0.09081
 Ene=     0.2720
 Spin= Alpha
 Occup= 0.0
    1   -0.00002
    2   -0.00235
    3    0.00511
    4    0.02564
    5   -0.00406
    6    0.03464
    7    0.60459
    8   -0.09674
    9    0.81484
   10    0.00026
   11    0.00012
   12   -0.00065
   13   -0.00051
   14   -0.00020
   15   -0.00044
   16   -0.66120
   17    0.12617
   18   -0.70922
   19    0.13758
   20    0.70816
   21   -0.13775
   22    0.66315
   23   -0.13078
 Ene=     0.2739
 Spin= Alpha
 Occup= 0.0
    1    0.00419
    2    1.81490
    3   -3.87120
    4   -0.00236
    5    0.00287
    6    0.00213
    7   -0.02565
    8    0.02963
    9    0.02426
   10    0.06704
   11    0.06522
   12    0.06861
   13   -0.00376
   14    0.00157
   15    0.00222
   16   -0.18001
   17    0.91580
   18   -0.25147
   19    0.93740
   20   -0.18072
   21    0.91640
   22   -0.25214
   23    0.93787
 Ene=     0.8573
 Spin= Alpha
 Occup= 0.0
    1    0.00000
    2    0.00005
    3   -0.00013
    4   -0.00065
    5    0.00083
    6    0.00078
    7    0.00483
    8   -0.00621
    9   -0.00578
   10   -0.06292
   11    0.35207
   12   -0.28915
   13   -0.28500
   14   -0.76831
   15    0.43297
   16   -0.00215
   17   -0.00268
   18    0.00262
   19    0.00322
   20   -0.00256
   21   -0.00320
   22    0.00221
   23    0.00271
 Ene=     0.9078
 Spin= Alpha
 Occup= 0.0
    1    0.00000
    2   -0.00000
    3    0.00001
    4   -0.00010
    5    0.00001
    6   -0.00008
    7    0.00071
    8   -0.00024
    9    0.00070
   10    0.74076
   11   -0.40669
   12   -0.33407
   13    0.38881
   14    0.07944
   15    0.54040
   16   -0.00031
   17   -0.00035
   18   -0.00020
   19   -0.00026
   20    0.00023
   21    0.00024
   22    0.00029
   23    0.00036
 Ene=     0.9079
 Spin= Alpha
 Occup= 0.0
    1    0.00000
    2    0.00000
    3   -0.00001
    4    0.00007
    5   -0.00004
    6   -0.00014
    7   -0.00029
    8    0.00068
    9    0.00099
   10   -0.32768
   11    0.75577
   12   -0.42809
   13    0.07915
   14    0.53352
   15    0.36681
   16    0.00015
   17    0.00019
   18   -0.00040
   19   -0.00051
   20    0.00043
   21    0.00049
   22   -0.00016
   23   -0.00017
 Ene=     1.4044
 Spin= Alpha
 Occup= 0.0
    1    0.06583
    2    0.43614
    3   -1.27364
    4    0.00023
    5   -0.00027
    6   -0.00020
    7   -0.00165
    8    0.00150
    9    0.00118
   10    0.02209
   11    0.40936
   12   -0.31624
   13    0.78599
   14   -0.34735
   15   -0.45958
   16    0.42153
   17    0.08592
   18    0.42094
   19    0.08469
   20    0.42143
   21    0.08579
   22    0.42087
   23    0.08454
 Ene=     1.6293
 Spin= Alpha
 Occup= 0.0
    1    0.00000
    2   -0.00000
    3   -0.00003
    4   -0.00003
    5   -0.00001
    6   -0.00005
    7   -0.00174
    8    0.00044
    9   -0.00197
   10    0.66818
   11    0.15034
   12   -0.81851
   13   -0.52834
   14    0.12312
   15   -0.51048
   16   -0.52304
   17    0.36476
   18    0.52422
   19   -0.36291
   20    0.52313
   21   -0.36460
   22   -0.52425
   23    0.36275
 Ene=     3.2803
 Spin= Alpha
 Occup= 0.0
    1   -0.46429
    2    3.04209
    3    1.74989
    4   -0.00001
    5   -0.00003
    6   -0.00000
    7    0.00007
    8    0.00008
    9   -0.00003
   10   -1.82863
   11   -1.82566
   12   -1.83123
   13    0.00602
   14   -0.00266
   15   -0.00353
   16    0.12449
   17   -0.32564
   18    0.12465
   19   -0.32622
   20    0.12450
   21   -0.32568
   22    0.12464
   23   -0.32623
