[Molden Format]
[Title]
Written by TeraChem
[Atoms] Angs
Cr   1   14      0.03412   -0.10095   -0.05434
S   2   16      0.43359    2.51012    0.31264
H   3   1     -0.08645    2.87384    1.50401
H   4   1     -0.52007    3.13580   -0.41053
S   5   16      2.54432   -0.52085    0.35875
H   6   1      3.14857    0.68695    0.31417
H   7   1      3.09084   -0.95561   -0.79772
S   8   16     -0.34793   -2.70291   -0.49307
H   9   1      0.20018   -3.35906    0.55250
H   10   1      0.57900   -3.11377   -1.38517
S   11   16     -2.46908    0.29436   -0.44398
H   12   1     -2.90500   -0.78120   -1.13641
H   13   1     -3.14734   -0.03730    0.67658
S   14   16     -0.34024   -0.59855    2.43821
H   15   1      0.75979   -0.22888    3.12944
H   16   1     -1.12988    0.36399    2.95987
S   17   16      0.43851    0.19230   -2.56615
H   18   1     -0.56580    0.91448   -3.11010
H   19   1      1.35890    1.17210   -2.69465
[GTO]
    1 0
 s    3 1.00
            5.361000            -0.380569
            1.449000             0.779562
            0.549600             0.473078
 s    4 1.00
            5.361000             0.220311
            1.449000            -0.542339
            0.549600            -0.604772
            0.105200             1.113666
 s    1 1.00
            0.036400             1.000000
 p    3 1.00
           16.420000            -0.046140
            1.914000             0.610996
            0.624100             0.485963
 p    1 1.00
            0.063000             1.000000
 p    1 1.00
            0.019000             1.000000
 d    4 1.00
           28.950000             0.033779
            7.708000             0.178035
            2.495000             0.437001
            0.765500             0.594180
 d    1 1.00
            0.188900             1.000000

    2 0
 s    6 1.00
        21917.100000             0.001869
         3301.490000             0.014230
          754.146000             0.069696
          212.711000             0.238487
           67.989600             0.483307
           23.051500             0.338074
 s    6 1.00
          423.735000            -0.002377
          100.710000            -0.031693
           32.159900            -0.113317
           11.807900             0.056090
            4.631100             0.592255
            1.870250             0.455006
 s    3 1.00
            2.615840            -0.250373
            0.922167             0.066957
            0.341287             1.054506
 s    1 1.00
            0.117167             1.000000
 p    6 1.00
          423.735000             0.004061
          100.710000             0.030681
           32.159900             0.130452
           11.807900             0.327205
            4.631100             0.452851
            1.870250             0.256042
 p    3 1.00
            2.615840            -0.014511
            0.922167             0.310263
            0.341287             0.754483
 p    1 1.00
            0.117167             1.000000
 d    1 1.00
            0.650000             1.000000

    3 0
 s    3 1.00
           18.731137             0.033495
            2.825394             0.234727
            0.640122             0.813757
 s    1 1.00
            0.161278             1.000000

    4 0
 s    3 1.00
           18.731137             0.033495
            2.825394             0.234727
            0.640122             0.813757
 s    1 1.00
            0.161278             1.000000

    5 0
 s    6 1.00
        21917.100000             0.001869
         3301.490000             0.014230
          754.146000             0.069696
          212.711000             0.238487
           67.989600             0.483307
           23.051500             0.338074
 s    6 1.00
          423.735000            -0.002377
          100.710000            -0.031693
           32.159900            -0.113317
           11.807900             0.056090
            4.631100             0.592255
            1.870250             0.455006
 s    3 1.00
            2.615840            -0.250373
            0.922167             0.066957
            0.341287             1.054506
 s    1 1.00
            0.117167             1.000000
 p    6 1.00
          423.735000             0.004061
          100.710000             0.030681
           32.159900             0.130452
           11.807900             0.327205
            4.631100             0.452851
            1.870250             0.256042
 p    3 1.00
            2.615840            -0.014511
            0.922167             0.310263
            0.341287             0.754483
 p    1 1.00
            0.117167             1.000000
 d    1 1.00
            0.650000             1.000000

    6 0
 s    3 1.00
           18.731137             0.033495
            2.825394             0.234727
            0.640122             0.813757
 s    1 1.00
            0.161278             1.000000

    7 0
 s    3 1.00
           18.731137             0.033495
            2.825394             0.234727
            0.640122             0.813757
 s    1 1.00
            0.161278             1.000000

    8 0
 s    6 1.00
        21917.100000             0.001869
         3301.490000             0.014230
          754.146000             0.069696
          212.711000             0.238487
           67.989600             0.483307
           23.051500             0.338074
 s    6 1.00
          423.735000            -0.002377
          100.710000            -0.031693
           32.159900            -0.113317
           11.807900             0.056090
            4.631100             0.592255
            1.870250             0.455006
 s    3 1.00
            2.615840            -0.250373
            0.922167             0.066957
            0.341287             1.054506
 s    1 1.00
            0.117167             1.000000
 p    6 1.00
          423.735000             0.004061
          100.710000             0.030681
           32.159900             0.130452
           11.807900             0.327205
            4.631100             0.452851
            1.870250             0.256042
 p    3 1.00
            2.615840            -0.014511
            0.922167             0.310263
            0.341287             0.754483
 p    1 1.00
            0.117167             1.000000
 d    1 1.00
            0.650000             1.000000

    9 0
 s    3 1.00
           18.731137             0.033495
            2.825394             0.234727
            0.640122             0.813757
 s    1 1.00
            0.161278             1.000000

   10 0
 s    3 1.00
           18.731137             0.033495
            2.825394             0.234727
            0.640122             0.813757
 s    1 1.00
            0.161278             1.000000

   11 0
 s    6 1.00
        21917.100000             0.001869
         3301.490000             0.014230
          754.146000             0.069696
          212.711000             0.238487
           67.989600             0.483307
           23.051500             0.338074
 s    6 1.00
          423.735000            -0.002377
          100.710000            -0.031693
           32.159900            -0.113317
           11.807900             0.056090
            4.631100             0.592255
            1.870250             0.455006
 s    3 1.00
            2.615840            -0.250373
            0.922167             0.066957
            0.341287             1.054506
 s    1 1.00
            0.117167             1.000000
 p    6 1.00
          423.735000             0.004061
          100.710000             0.030681
           32.159900             0.130452
           11.807900             0.327205
            4.631100             0.452851
            1.870250             0.256042
 p    3 1.00
            2.615840            -0.014511
            0.922167             0.310263
            0.341287             0.754483
 p    1 1.00
            0.117167             1.000000
 d    1 1.00
            0.650000             1.000000

   12 0
 s    3 1.00
           18.731137             0.033495
            2.825394             0.234727
            0.640122             0.813757
 s    1 1.00
            0.161278             1.000000

   13 0
 s    3 1.00
           18.731137             0.033495
            2.825394             0.234727
            0.640122             0.813757
 s    1 1.00
            0.161278             1.000000

   14 0
 s    6 1.00
        21917.100000             0.001869
         3301.490000             0.014230
          754.146000             0.069696
          212.711000             0.238487
           67.989600             0.483307
           23.051500             0.338074
 s    6 1.00
          423.735000            -0.002377
          100.710000            -0.031693
           32.159900            -0.113317
           11.807900             0.056090
            4.631100             0.592255
            1.870250             0.455006
 s    3 1.00
            2.615840            -0.250373
            0.922167             0.066957
            0.341287             1.054506
 s    1 1.00
            0.117167             1.000000
 p    6 1.00
          423.735000             0.004061
          100.710000             0.030681
           32.159900             0.130452
           11.807900             0.327205
            4.631100             0.452851
            1.870250             0.256042
 p    3 1.00
            2.615840            -0.014511
            0.922167             0.310263
            0.341287             0.754483
 p    1 1.00
            0.117167             1.000000
 d    1 1.00
            0.650000             1.000000

   15 0
 s    3 1.00
           18.731137             0.033495
            2.825394             0.234727
            0.640122             0.813757
 s    1 1.00
            0.161278             1.000000

   16 0
 s    3 1.00
           18.731137             0.033495
            2.825394             0.234727
            0.640122             0.813757
 s    1 1.00
            0.161278             1.000000

   17 0
 s    6 1.00
        21917.100000             0.001869
         3301.490000             0.014230
          754.146000             0.069696
          212.711000             0.238487
           67.989600             0.483307
           23.051500             0.338074
 s    6 1.00
          423.735000            -0.002377
          100.710000            -0.031693
           32.159900            -0.113317
           11.807900             0.056090
            4.631100             0.592255
            1.870250             0.455006
 s    3 1.00
            2.615840            -0.250373
            0.922167             0.066957
            0.341287             1.054506
 s    1 1.00
            0.117167             1.000000
 p    6 1.00
          423.735000             0.004061
          100.710000             0.030681
           32.159900             0.130452
           11.807900             0.327205
            4.631100             0.452851
            1.870250             0.256042
 p    3 1.00
            2.615840            -0.014511
            0.922167             0.310263
            0.341287             0.754483
 p    1 1.00
            0.117167             1.000000
 d    1 1.00
            0.650000             1.000000

   18 0
 s    3 1.00
           18.731137             0.033495
            2.825394             0.234727
            0.640122             0.813757
 s    1 1.00
            0.161278             1.000000

   19 0
 s    3 1.00
           18.731137             0.033495
            2.825394             0.234727
            0.640122             0.813757
 s    1 1.00
            0.161278             1.000000

[MO]
 Ene=   -89.2009
 Spin= Alpha
 Occup= 1.0
    1   -0.00000
    2    0.00001
    3   -0.00085
    4   -0.00000
    5    0.00000
    6    0.00001
    7   -0.00010
    8   -0.00021
    9    0.00096
   10   -0.00002
   11    0.00001
   12    0.00009
   13    0.00001
   14    0.00001
   15    0.00001
   16   -0.00000
   17    0.00000
   18   -0.00000
   19    0.00003
   20    0.00002
   21    0.00009
   22    0.00001
   23   -0.00001
   24    0.00001
   25    0.00011
   26    0.00000
   27   -0.00002
   28    0.00008
   29    0.00000
   30    0.00000
   31    0.00000
   32   -0.00001
   33   -0.00002
   34   -0.00002
   35    0.00007
   36   -0.00002
   37    0.00001
   38    0.00002
   39    0.00001
   40    0.00000
   41    0.00000
   42   -0.00000
   43    0.00000
   44    0.00000
   45   -0.00000
   46   -0.00001
   47    0.00013
   48    0.00041
   49    0.00001
   50   -0.00003
   51   -0.00001
   52    0.00000
   53   -0.00000
   54   -0.00000
   55   -0.00001
   56    0.00002
   57   -0.00000
   58   -0.00001
   59   -0.00010
   60   -0.00003
   61    0.00002
   62    0.00002
   63    0.00001
   64   -0.00000
   65    0.00000
   66    0.00000
   67   -0.00002
   68    0.00017
   69    0.00001
   70    0.00002
   71    0.00010
   72    0.00000
   73   -0.00003
   74    0.00007
   75   -0.00000
   76   -0.00000
   77    0.00000
   78    0.00001
   79    0.00002
   80   -0.00000
   81   -0.00005
   82    0.00000
   83   -0.00002
   84    0.00002
   85    0.00001
   86    0.00000
   87   -0.00000
   88    0.00001
   89   -0.00000
   90   -0.00000
   91    0.00002
   92   -0.00000
   93    0.00007
   94    0.00041
   95    0.00001
   96   -0.00004
   97    0.00007
   98   -0.00000
   99    0.00000
  100   -0.00000
  101    0.00001
  102   -0.00002
  103   -0.00000
  104    0.00004
  105    0.00012
  106    0.00000
  107    0.00001
  108    0.00002
  109    0.00000
  110   -0.00000
  111    0.00000
  112   -0.00001
  113   -0.00002
  114    0.00017
  115    0.00000
  116    0.00001
  117   -0.00034
  118    0.00001
  119    0.00008
  120   -0.00049
  121   -0.00000
  122   -0.00000
  123   -0.00000
  124    0.00000
  125    0.00001
  126   -0.00001
  127   -0.00005
  128   -0.00007
  129    0.00017
  130    0.00003
  131    0.00003
  132    0.00001
  133    0.00000
  134    0.00000
  135    0.00000
  136    0.00001
  137    0.00004
  138    0.00001
  139    0.00002
  140    0.99610
  141    0.01482
  142   -0.02439
  143    0.00447
  144   -0.00001
  145    0.00007
  146    0.00002
  147    0.00003
  148   -0.00005
  149   -0.00014
  150   -0.00011
  151    0.00019
  152    0.00047
  153    0.00838
  154    0.00838
  155    0.00839
  156    0.00000
  157   -0.00000
  158   -0.00000
  159    0.00011
  160   -0.00031
  161    0.00010
  162   -0.00030
 Ene=   -89.1987
 Spin= Alpha
 Occup= 1.0
    1    0.00000
    2   -0.00002
    3    0.00074
    4   -0.00000
    5   -0.00001
    6    0.00001
    7   -0.00011
    8   -0.00008
    9    0.00104
   10   -0.00001
   11   -0.00004
   12    0.00007
   13   -0.00000
   14   -0.00001
   15   -0.00000
   16    0.00000
   17   -0.00000
   18   -0.00000
   19   -0.00000
   20   -0.00000
   21   -0.00008
   22   -0.00002
   23    0.00002
   24    0.00004
   25   -0.00011
   26    0.00000
   27    0.00004
   28   -0.00016
   29   -0.00000
   30   -0.00000
   31   -0.00000
   32    0.00000
   33    0.00002
   34    0.00000
   35   -0.00000
   36    0.00003
   37   -0.00008
   38   -0.00001
   39   -0.00001
   40    0.00000
   41   -0.00000
   42    0.00000
   43    0.00001
   44   -0.00000
   45    0.00001
   46    0.00001
   47   -0.00003
   48   -0.00161
   49   -0.00003
   50    0.00007
   51   -0.00010
   52   -0.00000
   53    0.00000
   54   -0.00000
   55    0.00001
   56   -0.00001
   57    0.00001
   58    0.00003
   59    0.00006
   60   -0.00006
   61   -0.00002
   62   -0.00003
   63   -0.00001
   64    0.00000
   65   -0.00001
   66   -0.00001
   67    0.00002
   68   -0.00010
   69    0.00000
   70   -0.00001
   71   -0.00013
   72   -0.00000
   73    0.00003
   74   -0.00009
   75    0.00000
   76    0.00000
   77   -0.00000
   78   -0.00000
   79   -0.00002
   80   -0.00000
   81    0.00001
   82    0.00004
   83   -0.00004
   84   -0.00002
   85   -0.00001
   86    0.00000
   87    0.00000
   88   -0.00000
   89    0.00000
   90   -0.00001
   91   -0.00000
   92    0.00001
   93   -0.00001
   94   -0.00081
   95   -0.00001
   96    0.00005
   97   -0.00009
   98    0.00000
   99   -0.00000
  100   -0.00000
  101   -0.00002
  102    0.00001
  103    0.00001
  104    0.00002
  105   -0.00005
  106   -0.00013
  107   -0.00002
  108   -0.00002
  109   -0.00001
  110   -0.00000
  111   -0.00000
  112    0.00000
  113    0.00002
  114   -0.00010
  115   -0.00001
  116    0.00004
  117   -0.99610
  118   -0.01482
  119    0.02438
  120   -0.00444
  121   -0.00002
  122   -0.00007
  123   -0.00000
  124    0.00004
  125    0.00009
  126   -0.00011
  127   -0.00012
  128   -0.00032
  129    0.00037
  130   -0.00838
  131   -0.00838
  132   -0.00839
  133    0.00000
  134    0.00000
  135    0.00000
  136   -0.00011
  137    0.00031
  138   -0.00011
  139    0.00032
  140   -0.00034
  141   -0.00003
  142   -0.00007
  143    0.00053
  144    0.00000
  145    0.00000
  146   -0.00000
  147    0.00000
  148   -0.00000
  149   -0.00001
  150   -0.00004
  151    0.00001
  152    0.00020
  153   -0.00004
  154   -0.00004
  155   -0.00001
  156    0.00000
  157   -0.00000
  158   -0.00001
  159   -0.00001
  160   -0.00003
  161   -0.00001
  162   -0.00003
 Ene=   -89.1977
 Spin= Alpha
 Occup= 1.0
    1   -0.00000
    2    0.00001
    3   -0.00082
    4   -0.00001
    5    0.00000
    6   -0.00001
    7   -0.00100
    8    0.00008
    9   -0.00001
   10   -0.00008
   11    0.00004
   12   -0.00003
   13    0.00000
   14    0.00001
   15    0.00001
   16    0.00001
   17   -0.00000
   18    0.00000
   19    0.00008
   20    0.00004
   21    0.00001
   22   -0.00004
   23    0.00003
   24   -0.00000
   25    0.00026
   26    0.00001
   27   -0.00004
   28    0.00009
   29    0.00000
   30    0.00000
   31   -0.00000
   32   -0.00001
   33   -0.00001
   34    0.00001
   35    0.00010
   36   -0.00004
   37   -0.00007
   38    0.00000
   39    0.00001
   40    0.00002
   41    0.00000
   42   -0.00000
   43   -0.00000
   44   -0.00002
   45    0.00012
   46   -0.00000
   47    0.00002
   48    0.99610
   49    0.01482
   50   -0.02439
   51    0.00446
   52   -0.00000
   53    0.00004
   54   -0.00006
   55    0.00012
   56   -0.00005
   57    0.00008
   58   -0.00038
   59    0.00020
   60   -0.00029
   61    0.00839
   62    0.00838
   63    0.00838
   64   -0.00000
   65    0.00000
   66    0.00000
   67    0.00011
   68   -0.00032
   69    0.00011
   70   -0.00032
   71    0.00009
   72    0.00001
   73   -0.00001
   74   -0.00009
   75   -0.00000
   76   -0.00000
   77   -0.00000
   78    0.00002
   79    0.00001
   80    0.00000
   81   -0.00008
   82    0.00004
   83   -0.00002
   84    0.00001
   85    0.00002
   86    0.00002
   87    0.00001
   88   -0.00000
   89   -0.00000
   90   -0.00001
   91    0.00015
   92   -0.00001
   93    0.00015
   94   -0.00120
   95    0.00000
   96    0.00011
   97   -0.00051
   98   -0.00000
   99    0.00000
  100   -0.00000
  101    0.00001
  102   -0.00001
  103    0.00000
  104   -0.00018
  105    0.00007
  106   -0.00005
  107    0.00000
  108    0.00003
  109    0.00002
  110    0.00000
  111   -0.00000
  112   -0.00000
  113    0.00002
  114    0.00002
  115    0.00001
  116    0.00003
  117   -0.00161
  118   -0.00002
  119    0.00001
  120    0.00011
  121    0.00000
  122   -0.00000
  123    0.00000
  124   -0.00000
  125    0.00000
  126   -0.00002
  127    0.00005
  128   -0.00000
  129    0.00006
  130   -0.00002
  131    0.00001
  132   -0.00001
  133    0.00000
  134    0.00000
  135    0.00000
  136    0.00001
  137   -0.00002
  138   -0.00001
  139    0.00000
  140   -0.00041
  141   -0.00001
  142   -0.00003
  143    0.00016
  144   -0.00000
  145   -0.00000
  146   -0.00000
  147    0.00001
  148    0.00001
  149    0.00002
  150   -0.00001
  151   -0.00007
  152    0.00002
  153   -0.00001
  154    0.00001
  155    0.00001
  156   -0.00001
  157   -0.00000
  158    0.00000
  159   -0.00000
  160    0.00000
  161   -0.00001
  162    0.00010
 Ene=   -89.1969
 Spin= Alpha
 Occup= 1.0
    1    0.00000
    2   -0.00002
    3    0.00078
    4   -0.00001
    5    0.00001
    6   -0.00000
    7   -0.00102
    8   -0.00001
    9   -0.00015
   10   -0.00007
   11    0.00004
   12   -0.00001
   13   -0.00000
   14   -0.00000
   15   -0.00001
   16   -0.00001
   17    0.00000
   18    0.00000
   19   -0.00007
   20   -0.00002
   21   -0.00000
   22    0.00005
   23   -0.00002
   24   -0.00001
   25   -0.00020
   26   -0.00001
   27    0.00002
   28    0.00007
   29   -0.00000
   30   -0.00000
   31    0.00000
   32    0.00001
   33    0.00002
   34   -0.00001
   35   -0.00002
   36   -0.00001
   37    0.00007
   38   -0.00001
   39   -0.00002
   40   -0.00002
   41   -0.00001
   42    0.00000
   43    0.00000
   44    0.00002
   45   -0.00016
   46   -0.00000
   47   -0.00005
   48   -0.00120
   49   -0.00004
   50   -0.00005
   51    0.00050
   52   -0.00000
   53    0.00000
   54    0.00000
   55    0.00001
   56   -0.00000
   57    0.00000
   58   -0.00019
   59    0.00006
   60   -0.00005
   61   -0.00002
   62   -0.00004
   63   -0.00005
   64   -0.00000
   65    0.00000
   66    0.00000
   67   -0.00001
   68   -0.00002
   69   -0.00001
   70   -0.00002
   71   -0.00015
   72   -0.00000
   73    0.00004
   74   -0.00017
   75    0.00000
   76    0.00000
   77    0.00000
   78   -0.00000
   79   -0.00001
   80   -0.00001
   81    0.00006
   82   -0.00004
   83    0.00003
   84    0.00000
   85   -0.00001
   86   -0.00002
   87   -0.00000
   88    0.00000
   89   -0.00000
   90    0.00001
   91   -0.00005
   92    0.00001
   93   -0.00002
   94   -0.99610
   95   -0.01482
   96    0.02439
   97   -0.00447
   98   -0.00000
   99    0.00007
  100   -0.00003
  101    0.00012
  102   -0.00008
  103    0.00005
  104   -0.00039
  105    0.00031
  106   -0.00016
  107   -0.00839
  108   -0.00838
  109   -0.00838
  110    0.00000
  111   -0.00000
  112   -0.00000
  113   -0.00011
  114    0.00033
  115   -0.00011
  116    0.00033
  117    0.00081
  118    0.00001
  119    0.00001
  120   -0.00009
  121    0.00000
  122    0.00000
  123   -0.00000
  124    0.00000
  125   -0.00001
  126    0.00002
  127    0.00004
  128    0.00005
  129    0.00004
  130    0.00001
  131   -0.00001
  132   -0.00000
  133   -0.00001
  134   -0.00000
  135   -0.00000
  136    0.00000
  137   -0.00002
  138    0.00001
  139   -0.00009
  140    0.00041
  141    0.00000
  142    0.00002
  143   -0.00013
  144    0.00000
  145    0.00000
  146    0.00000
  147   -0.00000
  148   -0.00000
  149   -0.00002
  150    0.00008
  151    0.00002
  152    0.00003
  153    0.00001
  154   -0.00002
  155   -0.00000
  156   -0.00000
  157   -0.00000
  158    0.00000
  159   -0.00001
  160    0.00002
  161    0.00001
  162   -0.00004
 Ene=   -89.1920
 Spin= Alpha
 Occup= 1.0
    1    0.00000
    2    0.00001
    3   -0.00086
    4   -0.00000
    5   -0.00001
    6   -0.00000
    7   -0.00006
    8   -0.00083
    9   -0.00018
   10   -0.00003
   11   -0.00010
   12   -0.00001
   13    0.00002
   14    0.00000
   15    0.00001
   16   -0.00001
   17    0.00000
   18   -0.00000
   19    0.00003
   20    0.00007
   21    0.00006
   22    0.00003
   23   -0.00000
   24   -0.00000
   25    0.99610
   26    0.01482
   27   -0.02438
   28    0.00438
   29   -0.00007
   30   -0.00001
   31    0.00001
   32    0.00009
   33    0.00012
   34    0.00000
   35   -0.00031
   36   -0.00039
   37   -0.00000
   38    0.00838
   39    0.00840
   40    0.00839
   41    0.00000
   42    0.00000
   43    0.00000
   44    0.00011
   45   -0.00032
   46    0.00011
   47   -0.00033
   48   -0.00026
   49   -0.00000
   50   -0.00003
   51    0.00016
   52    0.00000
   53    0.00000
   54    0.00000
   55   -0.00002
   56    0.00000
   57   -0.00001
   58    0.00001
   59    0.00007
   60    0.00004
   61    0.00000
   62   -0.00000
   63    0.00001
   64    0.00000
   65   -0.00000
   66   -0.00000
   67    0.00001
   68   -0.00003
   69   -0.00002
   70    0.00006
   71   -0.00016
   72    0.00001
   73    0.00006
   74   -0.00038
   75   -0.00000
   76   -0.00000
   77   -0.00000
   78    0.00000
   79    0.00001
   80    0.00000
   81   -0.00005
   82   -0.00014
   83   -0.00004
   84    0.00003
   85    0.00001
   86    0.00002
   87   -0.00000
   88    0.00000
   89   -0.00000
   90    0.00001
   91    0.00003
   92    0.00001
   93    0.00002
   94   -0.00021
   95   -0.00000
   96   -0.00003
   97    0.00012
   98   -0.00000
   99    0.00000
  100   -0.00000
  101    0.00002
  102    0.00000
  103    0.00002
  104    0.00004
  105    0.00005
  106   -0.00007
  107    0.00001
  108    0.00000
  109    0.00001
  110   -0.00000
  111    0.00000
  112    0.00000
  113    0.00000
  114   -0.00001
  115   -0.00002
  116    0.00012
  117   -0.00011
  118    0.00000
  119   -0.00001
  120   -0.00001
  121   -0.00000
  122   -0.00000
  123    0.00000
  124    0.00001
  125    0.00002
  126   -0.00001
  127   -0.00004
  128   -0.00003
  129   -0.00007
  130    0.00001
  131    0.00001
  132    0.00001
  133    0.00000
  134   -0.00000
  135   -0.00001
  136   -0.00002
  137    0.00016
  138   -0.00002
  139    0.00013
  140   -0.00011
  141    0.00001
  142   -0.00000
  143   -0.00006
  144    0.00000
  145   -0.00000
  146   -0.00000
  147   -0.00001
  148    0.00001
  149    0.00002
  150    0.00007
  151   -0.00005
  152    0.00001
  153    0.00002
  154    0.00001
  155    0.00002
  156   -0.00000
  157   -0.00000
  158    0.00000
  159   -0.00002
  160    0.00017
  161    0.00000
  162    0.00007
 Ene=   -89.1880
 Spin= Alpha
 Occup= 1.0
    1    0.00000
    2    0.00001
    3   -0.00083
    4    0.00001
    5    0.00001
    6    0.00000
    7    0.00000
    8    0.00090
    9    0.00013
   10    0.00004
   11    0.00009
   12    0.00002
   13    0.00001
   14    0.00000
   15    0.00002
   16   -0.00001
   17    0.00000
   18   -0.00000
   19    0.00005
   20    0.00007
   21    0.00003
   22    0.00003
   23   -0.00001
   24    0.00001
   25    0.00016
   26    0.00002
   27    0.00006
   28   -0.00041
   29    0.00000
   30    0.00000
   31   -0.00000
   32   -0.00000
   33   -0.00001
   34    0.00000
   35    0.00006
   36    0.00015
   37    0.00000
   38    0.00003
   39    0.00001
   40    0.00003
   41   -0.00000
   42   -0.00000
   43   -0.00000
   44    0.00001
   45    0.00004
   46    0.00001
   47    0.00002
   48   -0.00010
   49    0.00000
   50   -0.00002
   51    0.00009
   52    0.00000
   53    0.00000
   54    0.00000
   55   -0.00002
   56   -0.00001
   57   -0.00002
   58   -0.00004
   59    0.00000
   60    0.00009
   61    0.00001
   62    0.00001
   63    0.00001
   64    0.00000
   65    0.00000
   66   -0.00001
   67    0.00000
   68   -0.00001
   69   -0.00002
   70    0.00016
   71    0.99610
   72    0.01482
   73   -0.02438
   74    0.00440
   75    0.00007
   76    0.00000
   77    0.00001
   78   -0.00009
   79   -0.00011
   80   -0.00003
   81    0.00032
   82    0.00037
   83    0.00011
   84    0.00838
   85    0.00840
   86    0.00838
   87    0.00000
   88   -0.00000
   89    0.00000
   90    0.00011
   91   -0.00034
   92    0.00012
   93   -0.00034
   94   -0.00015
   95    0.00000
   96   -0.00002
   97   -0.00000
   98   -0.00000
   99    0.00000
  100   -0.00000
  101    0.00001
  102   -0.00001
  103    0.00002
  104    0.00001
  105   -0.00001
  106   -0.00010
  107    0.00001
  108    0.00001
  109    0.00002
  110   -0.00000
  111    0.00000
  112   -0.00000
  113    0.00001
  114    0.00001
  115   -0.00003
  116    0.00016
  117   -0.00013
  118    0.00000
  119   -0.00003
  120    0.00011
  121   -0.00000
  122   -0.00000
  123    0.00000
  124    0.00000
  125    0.00001
  126   -0.00002
  127   -0.00001
  128   -0.00007
  129   -0.00001
  130    0.00002
  131   -0.00000
  132    0.00000
  133   -0.00000
  134   -0.00000
  135   -0.00001
  136   -0.00001
  137    0.00005
  138   -0.00001
  139    0.00004
  140   -0.00011
  141    0.00000
  142   -0.00003
  143    0.00009
  144    0.00000
  145   -0.00000
  146   -0.00000
  147   -0.00002
  148    0.00000
  149    0.00002
  150    0.00007
  151   -0.00008
  152    0.00001
  153    0.00002
  154   -0.00000
  155    0.00001
  156   -0.00000
  157    0.00000
  158    0.00000
  159   -0.00002
  160    0.00010
  161   -0.00001
  162    0.00001
 Ene=    -8.2668
 Spin= Alpha
 Occup= 1.0
    1    0.00028
    2    0.00027
    3    0.00770
    4    0.00004
    5   -0.00005
    6   -0.00008
    7    0.00131
    8    0.00318
    9   -0.01247
   10   -0.00001
   11   -0.00023
   12    0.00000
   13   -0.00017
   14   -0.00019
   15   -0.00008
   16    0.00001
   17   -0.00003
   18    0.00003
   19   -0.00052
   20   -0.00045
   21    0.00028
   22   -0.00005
   23   -0.00006
   24   -0.00040
   25    0.00006
   26   -0.00020
   27    0.00007
   28   -0.00082
   29   -0.00002
   30   -0.00003
   31   -0.00003
   32    0.00015
   33    0.00020
   34    0.00013
   35   -0.00083
   36    0.00041
   37    0.00057
   38   -0.00011
   39   -0.00004
   40    0.00000
   41   -0.00003
   42    0.00001
   43   -0.00014
   44   -0.00003
   45   -0.00034
   46    0.00015
   47   -0.00129
   48   -0.00013
   49    0.00047
   50    0.00015
   51   -0.00010
   52   -0.00002
   53    0.00003
   54   -0.00001
   55    0.00013
   56   -0.00015
   57    0.00002
   58   -0.00005
   59    0.00064
   60    0.00083
   61    0.00000
   62   -0.00008
   63   -0.00011
   64    0.00005
   65   -0.00012
   66    0.00001
   67    0.00022
   68   -0.00137
   69    0.00001
   70   -0.00018
   71   -0.00002
   72    0.00007
   73    0.00009
   74   -0.00015
   75    0.00002
   76    0.00003
   77   -0.00000
   78   -0.00013
   79   -0.00017
   80    0.00000
   81    0.00061
   82   -0.00014
   83    0.00082
   84   -0.00012
   85   -0.00006