[Molden Format]
[Title]
Written by TeraChem
[Atoms] Angs
Mn   1   15     -0.17757   -0.28714    0.12009
C   2   6     -1.60963    1.32849   -1.67538
H   3   1     -1.38552    2.36698   -1.40974
C   4   6     -1.52909    0.96297   -3.10331
H   5   1     -2.37826    1.48726   -3.58829
H   6   1     -0.64415    1.36344   -3.60997
H   7   1     -1.64750   -0.10466   -3.30561
C   8   6      2.55995   -0.13306    0.98803
H   9   1      2.78361    0.91421    1.21457
C   10   6      3.54844   -0.87669    0.18904
H   11   1      3.24214   -1.88731   -0.09302
H   12   1      4.43976   -0.97127    0.84470
H   13   1      3.92302   -0.31907   -0.67801
C   14   6     -1.00605   -2.27172    0.23107
H   15   1     -0.79048   -2.92760   -0.62713
C   16   6     -1.80456   -2.93328    1.21690
H   17   1     -2.08563   -2.39739    2.12423
H   18   1     -1.32701   -3.91741    1.45781
H   19   1     -2.70238   -3.36993    0.70865
C   20   6     -2.18251    0.53234   -0.67208
H   21   1     -2.63215   -0.40606   -1.01530
C   22   6     -2.66724    1.07953    0.64797
H   23   1     -2.16770    2.00509    0.95190
H   24   1     -3.73922    1.31774    0.52638
H   25   1     -2.64418    0.34831    1.46638
C   26   6      1.46780   -0.70150    1.66000
H   27   1      1.40086   -1.79420    1.60820
C   28   6      0.76666   -0.03041    2.81869
H   29   1      0.89246    1.05649    2.83707
H   30   1     -0.29970   -0.28344    2.90689
H   31   1      1.21390   -0.42823    3.74629
C   32   6      0.86705    1.33648   -0.59666
H   33   1      0.79621    2.23687    0.03166
C   34   6      1.69686    1.50983   -1.77283
H   35   1      1.81450    0.64784   -2.43297
H   36   1      1.33134    2.38965   -2.34626
H   37   1      2.68958    1.90466   -1.46696
[GTO]
    1 0
 s    3 1.00
            5.914000            -0.376451
            1.605000             0.772479
            0.626000             0.476935
 s    4 1.00
            5.914000             0.211997
            1.605000            -0.519947
            0.626000            -0.585768
            0.111500             1.100396
 s    1 1.00
            0.038000             1.000000
 p    3 1.00
           18.200000            -0.044790
            2.141000             0.626031
            0.700900             0.469633
 p    1 1.00
            0.069000             1.000000
 p    1 1.00
            0.021000             1.000000
 d    4 1.00
           32.270000             0.034158
            8.875000             0.176110
            2.890000             0.439430
            0.876100             0.594327
 d    1 1.00
            0.212000             1.000000

    2 0
 s    6 1.00
         3047.524900             0.001835
          457.369510             0.014037
          103.948690             0.068843
           29.210155             0.232184
            9.286663             0.467941
            3.163927             0.362312
 s    3 1.00
            7.868272            -0.119332
            1.881288            -0.160854
            0.544249             1.143456
 s    1 1.00
            0.168714             1.000000
 p    3 1.00
            7.868272             0.068999
            1.881288             0.316424
            0.544249             0.744308
 p    1 1.00
            0.168714             1.000000
 d    1 1.00
            0.800000             1.000000

    3 0
 s    3 1.00
           18.731137             0.033495
            2.825394             0.234727
            0.640122             0.813757
 s    1 1.00
            0.161278             1.000000

    4 0
 s    6 1.00
         3047.524900             0.001835
          457.369510             0.014037
          103.948690             0.068843
           29.210155             0.232184
            9.286663             0.467941
            3.163927             0.362312
 s    3 1.00
            7.868272            -0.119332
            1.881288            -0.160854
            0.544249             1.143456
 s    1 1.00
            0.168714             1.000000
 p    3 1.00
            7.868272             0.068999
            1.881288             0.316424
            0.544249             0.744308
 p    1 1.00
            0.168714             1.000000
 d    1 1.00
            0.800000             1.000000

    5 0
 s    3 1.00
           18.731137             0.033495
            2.825394             0.234727
            0.640122             0.813757
 s    1 1.00
            0.161278             1.000000

    6 0
 s    3 1.00
           18.731137             0.033495
            2.825394             0.234727
            0.640122             0.813757
 s    1 1.00
            0.161278             1.000000

    7 0
 s    3 1.00
           18.731137             0.033495
            2.825394             0.234727
            0.640122             0.813757
 s    1 1.00
            0.161278             1.000000

    8 0
 s    6 1.00
         3047.524900             0.001835
          457.369510             0.014037
          103.948690             0.068843
           29.210155             0.232184
            9.286663             0.467941
            3.163927             0.362312
 s    3 1.00
            7.868272            -0.119332
            1.881288            -0.160854
            0.544249             1.143456
 s    1 1.00
            0.168714             1.000000
 p    3 1.00
            7.868272             0.068999
            1.881288             0.316424
            0.544249             0.744308
 p    1 1.00
            0.168714             1.000000
 d    1 1.00
            0.800000             1.000000

    9 0
 s    3 1.00
           18.731137             0.033495
            2.825394             0.234727
            0.640122             0.813757
 s    1 1.00
            0.161278             1.000000

   10 0
 s    6 1.00
         3047.524900             0.001835
          457.369510             0.014037
          103.948690             0.068843
           29.210155             0.232184
            9.286663             0.467941
            3.163927             0.362312
 s    3 1.00
            7.868272            -0.119332
            1.881288            -0.160854
            0.544249             1.143456
 s    1 1.00
            0.168714             1.000000
 p    3 1.00
            7.868272             0.068999
            1.881288             0.316424
            0.544249             0.744308
 p    1 1.00
            0.168714             1.000000
 d    1 1.00
            0.800000             1.000000

   11 0
 s    3 1.00
           18.731137             0.033495
            2.825394             0.234727
            0.640122             0.813757
 s    1 1.00
            0.161278             1.000000

   12 0
 s    3 1.00
           18.731137             0.033495
            2.825394             0.234727
            0.640122             0.813757
 s    1 1.00
            0.161278             1.000000

   13 0
 s    3 1.00
           18.731137             0.033495
            2.825394             0.234727
            0.640122             0.813757
 s    1 1.00
            0.161278             1.000000

   14 0
 s    6 1.00
         3047.524900             0.001835
          457.369510             0.014037
          103.948690             0.068843
           29.210155             0.232184
            9.286663             0.467941
            3.163927             0.362312
 s    3 1.00
            7.868272            -0.119332
            1.881288            -0.160854
            0.544249             1.143456
 s    1 1.00
            0.168714             1.000000
 p    3 1.00
            7.868272             0.068999
            1.881288             0.316424
            0.544249             0.744308
 p    1 1.00
            0.168714             1.000000
 d    1 1.00
            0.800000             1.000000

   15 0
 s    3 1.00
           18.731137             0.033495
            2.825394             0.234727
            0.640122             0.813757
 s    1 1.00
            0.161278             1.000000

   16 0
 s    6 1.00
         3047.524900             0.001835
          457.369510             0.014037
          103.948690             0.068843
           29.210155             0.232184
            9.286663             0.467941
            3.163927             0.362312
 s    3 1.00
            7.868272            -0.119332
            1.881288            -0.160854
            0.544249             1.143456
 s    1 1.00
            0.168714             1.000000
 p    3 1.00
            7.868272             0.068999
            1.881288             0.316424
            0.544249             0.744308
 p    1 1.00
            0.168714             1.000000
 d    1 1.00
            0.800000             1.000000

   17 0
 s    3 1.00
           18.731137             0.033495
            2.825394             0.234727
            0.640122             0.813757
 s    1 1.00
            0.161278             1.000000

   18 0
 s    3 1.00
           18.731137             0.033495
            2.825394             0.234727
            0.640122             0.813757
 s    1 1.00
            0.161278             1.000000

   19 0
 s    3 1.00
           18.731137             0.033495
            2.825394             0.234727
            0.640122             0.813757
 s    1 1.00
            0.161278             1.000000

   20 0
 s    6 1.00
         3047.524900             0.001835
          457.369510             0.014037
          103.948690             0.068843
           29.210155             0.232184
            9.286663             0.467941
            3.163927             0.362312
 s    3 1.00
            7.868272            -0.119332
            1.881288            -0.160854
            0.544249             1.143456
 s    1 1.00
            0.168714             1.000000
 p    3 1.00
            7.868272             0.068999
            1.881288             0.316424
            0.544249             0.744308
 p    1 1.00
            0.168714             1.000000
 d    1 1.00
            0.800000             1.000000

   21 0
 s    3 1.00
           18.731137             0.033495
            2.825394             0.234727
            0.640122             0.813757
 s    1 1.00
            0.161278             1.000000

   22 0
 s    6 1.00
         3047.524900             0.001835
          457.369510             0.014037
          103.948690             0.068843
           29.210155             0.232184
            9.286663             0.467941
            3.163927             0.362312
 s    3 1.00
            7.868272            -0.119332
            1.881288            -0.160854
            0.544249             1.143456
 s    1 1.00
            0.168714             1.000000
 p    3 1.00
            7.868272             0.068999
            1.881288             0.316424
            0.544249             0.744308
 p    1 1.00
            0.168714             1.000000
 d    1 1.00
            0.800000             1.000000

   23 0
 s    3 1.00
           18.731137             0.033495
            2.825394             0.234727
            0.640122             0.813757
 s    1 1.00
            0.161278             1.000000

   24 0
 s    3 1.00
           18.731137             0.033495
            2.825394             0.234727
            0.640122             0.813757
 s    1 1.00
            0.161278             1.000000

   25 0
 s    3 1.00
           18.731137             0.033495
            2.825394             0.234727
            0.640122             0.813757
 s    1 1.00
            0.161278             1.000000

   26 0
 s    6 1.00
         3047.524900             0.001835
          457.369510             0.014037
          103.948690             0.068843
           29.210155             0.232184
            9.286663             0.467941
            3.163927             0.362312
 s    3 1.00
            7.868272            -0.119332
            1.881288            -0.160854
            0.544249             1.143456
 s    1 1.00
            0.168714             1.000000
 p    3 1.00
            7.868272             0.068999
            1.881288             0.316424
            0.544249             0.744308
 p    1 1.00
            0.168714             1.000000
 d    1 1.00
            0.800000             1.000000

   27 0
 s    3 1.00
           18.731137             0.033495
            2.825394             0.234727
            0.640122             0.813757
 s    1 1.00
            0.161278             1.000000

   28 0
 s    6 1.00
         3047.524900             0.001835
          457.369510             0.014037
          103.948690             0.068843
           29.210155             0.232184
            9.286663             0.467941
            3.163927             0.362312
 s    3 1.00
            7.868272            -0.119332
            1.881288            -0.160854
            0.544249             1.143456
 s    1 1.00
            0.168714             1.000000
 p    3 1.00
            7.868272             0.068999
            1.881288             0.316424
            0.544249             0.744308
 p    1 1.00
            0.168714             1.000000
 d    1 1.00
            0.800000             1.000000

   29 0
 s    3 1.00
           18.731137             0.033495
            2.825394             0.234727
            0.640122             0.813757
 s    1 1.00
            0.161278             1.000000

   30 0
 s    3 1.00
           18.731137             0.033495
            2.825394             0.234727
            0.640122             0.813757
 s    1 1.00
            0.161278             1.000000

   31 0
 s    3 1.00
           18.731137             0.033495
            2.825394             0.234727
            0.640122             0.813757
 s    1 1.00
            0.161278             1.000000

   32 0
 s    6 1.00
         3047.524900             0.001835
          457.369510             0.014037
          103.948690             0.068843
           29.210155             0.232184
            9.286663             0.467941
            3.163927             0.362312
 s    3 1.00
            7.868272            -0.119332
            1.881288            -0.160854
            0.544249             1.143456
 s    1 1.00
            0.168714             1.000000
 p    3 1.00
            7.868272             0.068999
            1.881288             0.316424
            0.544249             0.744308
 p    1 1.00
            0.168714             1.000000
 d    1 1.00
            0.800000             1.000000

   33 0
 s    3 1.00
           18.731137             0.033495
            2.825394             0.234727
            0.640122             0.813757
 s    1 1.00
            0.161278             1.000000

   34 0
 s    6 1.00
         3047.524900             0.001835
          457.369510             0.014037
          103.948690             0.068843
           29.210155             0.232184
            9.286663             0.467941
            3.163927             0.362312
 s    3 1.00
            7.868272            -0.119332
            1.881288            -0.160854
            0.544249             1.143456
 s    1 1.00
            0.168714             1.000000
 p    3 1.00
            7.868272             0.068999
            1.881288             0.316424
            0.544249             0.744308
 p    1 1.00
            0.168714             1.000000
 d    1 1.00
            0.800000             1.000000

   35 0
 s    3 1.00
           18.731137             0.033495
            2.825394             0.234727
            0.640122             0.813757
 s    1 1.00
            0.161278             1.000000

   36 0
 s    3 1.00
           18.731137             0.033495
            2.825394             0.234727
            0.640122             0.813757
 s    1 1.00
            0.161278             1.000000

   37 0
 s    3 1.00
           18.731137             0.033495
            2.825394             0.234727
            0.640122             0.813757
 s    1 1.00
            0.161278             1.000000

[MO]
 Ene=   -10.7112
 Spin= Alpha
 Occup= 1.0
    1    0.00000
    2   -0.00035
    3   -0.00033
    4   -0.00010
    5   -0.00016
    6    0.00008
    7   -0.00171
    8   -0.00276
    9    0.00102
   10    0.00004
   11    0.00022
   12    0.00006
   13   -0.00027
   14   -0.00034
   15   -0.00027
   16   -0.00002
   17    0.00000
   18   -0.00001
   19   -0.00065
   20   -0.00055
   21   -0.00048
   22   -0.00033
   23    0.00021
   24    0.00039
   25    0.00019
   26    0.00044
   27   -0.00284
   28    0.00021
   29    0.00003
   30    0.00006
   31   -0.00074
   32    0.00013
   33   -0.00062
   34    0.00014
   35    0.00017
   36    0.00017
   37   -0.00004
   38   -0.00002
   39   -0.00000
   40    0.00028
   41    0.00027
   42   -0.00003
   43   -0.00012
   44    0.00074
   45   -0.00004
   46    0.00001
   47    0.00001
   48    0.00049
   49    0.00000
   50    0.00036
   51   -0.00003
   52   -0.00004
   53   -0.00002
   54    0.00004
   55    0.00005
   56    0.00000
   57    0.00001
   58    0.00011
   59   -0.00009
   60   -0.00009
   61   -0.00005
   62    0.00002
   63    0.00020
   64    0.00041
   65   -0.00271
   66   -0.00010
   67    0.00014
   68   -0.00012
   69    0.00084
   70   -0.00033
   71    0.00030
   72    0.00016
   73    0.00013
   74    0.00019
   75   -0.00000
   76    0.00000
   77    0.00003
   78    0.00026
   79    0.00024
   80   -0.00003
   81   -0.00011
   82    0.00066
   83    0.00002
   84   -0.00001
   85    0.00004
   86   -0.00044
   87    0.00030
   88   -0.00029
   89   -0.00002
   90   -0.00001
   91   -0.00008
   92   -0.00003
   93    0.00000
   94   -0.00003
   95   -0.00005
   96    0.00001
   97    0.00002
   98    0.00013
   99   -0.00009
  100   -0.00009
  101    0.00031
  102    0.00014
  103   -0.00084
  104   -0.00000
  105    0.00001
  106    0.00000
  107   -0.00013
  108    0.00001
  109    0.00024
  110    0.00005
  111    0.00012
  112    0.00005
  113    0.00003
  114   -0.00001
  115    0.00001
  116    0.00008
  117   -0.00007
  118    0.00003
  119    0.00009
  120   -0.00036
  121    0.00003
  122    0.00009
  123    0.00001
  124   -0.00019
  125   -0.00058
  126   -0.00006
  127    0.00005
  128    0.00001
  129    0.00003
  130   -0.00003
  131    0.00003
  132    0.00000
  133    0.00010
  134   -0.00006
  135   -0.00003
  136   -0.00015
  137   -0.00003
  138   -0.00015
  139   -0.00004
  140   -0.00015
  141    0.00135
  142    0.00002
  143   -0.00003
  144    0.00000
  145    0.00074
  146    0.00067
  147   -0.00053
  148    0.00005
  149   -0.00003
  150   -0.00006
  151    0.00004
  152   -0.00003
  153    0.00001
  154    0.00005
  155   -0.00019
  156   -0.00002
  157   -0.00005
  158    0.00016
  159   -0.00004
  160    0.00003
  161    0.00002
  162    0.00001
  163   -0.00041
  164    0.00005
  165   -0.00003
  166   -0.00002
  167   -0.00002
  168    0.00002
  169    0.00000
  170    0.00001
  171   -0.00008
  172    0.00051
  173    0.00001
  174    0.00006
  175    0.00001
  176   -0.00055
  177   -0.00004
  178   -0.00015
  179    0.00142
  180   -0.00003
  181    0.00002
  182   -0.00004
  183    0.00066
  184    0.00048
  185   -0.00069
  186   -0.00006
  187    0.00001
  188    0.00004
  189    0.00002
  190   -0.00000
  191   -0.00005
  192    0.00003
  193   -0.00034
  194   -0.00003
  195   -0.00008
  196    0.00037
  197    0.00001
  198   -0.00001
  199    0.00006
  200   -0.00025
  201   -0.00019
  202   -0.00027
  203   -0.00004
  204   -0.00001
  205   -0.00003
  206   -0.00000
  207   -0.00001
  208    0.00000
  209   -0.00010
  210    0.00042
  211    0.00000
  212   -0.00053
  213    0.00002
  214    0.00011
  215   -0.99313
  216   -0.04877
  217    0.01625
  218   -0.00024
  219   -0.00036
  220    0.00017
  221    0.00053
  222   -0.00014
  223   -0.00092
  224    0.00886
  225    0.00880
  226    0.00865
  227    0.00000
  228    0.00020
  229   -0.00012
  230    0.00011
  231   -0.00203
  232   -0.00189
  233    0.00024
  234   -0.00483
  235   -0.00017
  236   -0.00001
  237    0.00025
  238    0.00120
  239    0.00030
  240   -0.00162
  241    0.00026
  242    0.00013
  243    0.00043
  244    0.00003
  245   -0.00025
  246   -0.00003
  247    0.00010
  248    0.00035
  249    0.00017
  250   -0.00002
  251    0.00016
  252   -0.00003
 Ene=   -10.7008
 Spin= Alpha
 Occup= 1.0
    1   -0.00010
    2   -0.00015
    3   -0.00135
    4    0.00001
    5    0.00011
    6    0.00004
    7    0.00209
    8    0.00380
    9   -0.00123
   10    0.00001
   11   -0.00030
   12   -0.00020
   13   -0.00000
   14   -0.00004
   15   -0.00003
   16   -0.00003
   17    0.00003
   18   -0.00001
   19   -0.00023
   20   -0.00058
   21    0.00002
   22   -0.00016
   23   -0.00020
   24    0.00007
   25    0.00003
   26    0.00006
   27   -0.00049
   28    0.00002
   29    0.00005
   30    0.00002
   31   -0.00016
   32   -0.00012
   33   -0.00044
   34   -0.00000
   35    0.00000
   36    0.00001
   37   -0.00001
   38   -0.00001
   39    0.00001
   40    0.00005
   41    0.00008
   42    0.00003
   43    0.00008
   44   -0.00062
   45    0.00001
   46   -0.00002
   47   -0.00002
   48   -0.00003
   49    0.00015
   50   -0.00008
   51    0.00003
   52    0.00003
   53    0.00003
   54    0.00000
   55    0.00001
   56    0.00000
   57    0.00001
   58   -0.00000
   59    0.00002
   60    0.00003
   61   -0.00002
   62    0.00033
   63    0.00003
   64    0.00006
   65   -0.00034
   66   -0.00001
   67    0.00005
   68   -0.00000
   69    0.00028
   70   -0.00031
   71    0.00004
   72    0.00000
   73    0.00001
   74    0.00002
   75   -0.00000
   76   -0.00001
   77    0.00000
   78    0.00004
   79    0.00008
   80    0.00002
   81    0.00006
   82   -0.00051
   83    0.00000
   84   -0.00002
   85   -0.00002
   86    0.00010
   87    0.00011
   88    0.00001
   89    0.00002
   90    0.00003
   91    0.00002
   92   -0.00000
   93    0.00000
   94   -0.00000
   95   -0.00002
   96    0.00032
   97    0.00001
   98    0.00000
   99    0.00002
  100    0.00002
  101   -0.99303
  102   -0.04855
  103    0.01421
  104    0.00029
  105    0.00058
  106   -0.00008
  107   -0.00034
  108    0.00003
  109    0.00059
  110    0.00904
  111    0.00902
  112    0.00881
  113   -0.00008
  114    0.00024
  115    0.00002
  116    0.00018
  117   -0.00161
  118   -0.00238
  119    0.00004
  120   -0.00340
  121    0.00021
  122    0.00014
  123   -0.00028
  124   -0.00074
  125   -0.00063
  126    0.00093
  127    0.00021
  128    0.00018
  129    0.00033
  130    0.00015
  131   -0.00025
  132   -0.00016
  133    0.00001
  134    0.00051
  135    0.00011
  136   -0.00006
  137    0.00011
  138   -0.00004
  139   -0.00003
  140   -0.00010
  141    0.00060
  142    0.00004
  143   -0.00004
  144    0.00003
  145    0.00016
  146   -0.00006
  147   -0.00015
  148    0.00000
  149    0.00001
  150   -0.00001
  151   -0.00002
  152   -0.00000
  153   -0.00004
  154    0.00010
  155   -0.00010
  156   -0.00001
  157   -0.00004
  158   -0.00011
  159   -0.00000
  160    0.00003
  161    0.00003
  162    0.00007
  163   -0.00011
  164   -0.00028
  165   -0.00004
  166    0.00001
  167   -0.00002
  168   -0.00004
  169    0.00000
  170    0.00001
  171    0.00003
  172   -0.00001
  173   -0.00001
  174    0.00011
  175   -0.00011
  176    0.00088
  177   -0.00004
  178   -0.00011
  179    0.00056
  180   -0.00002
  181    0.00001
  182   -0.00002
  183   -0.00021
  184   -0.00016
  185   -0.00020
  186    0.00000
  187   -0.00004
  188   -0.00002
  189    0.00003
  190    0.00002
  191    0.00001
  192    0.00005
  193   -0.00003
  194    0.00000
  195    0.00001
  196   -0.00043
  197   -0.00002
  198    0.00005
  199    0.00002
  200    0.00034
  201   -0.00021
  202   -0.00011
  203    0.00001
  204   -0.00002
  205    0.00001
  206    0.00000
  207    0.00001
  208    0.00004
  209    0.00005
  210    0.00008
  211   -0.00011
  212    0.00109
  213   -0.00002
  214    0.00006
  215   -0.00023
  216    0.00011
  217   -0.00081
  218   -0.00005
  219   -0.00010
  220    0.00002
  221    0.00039
  222    0.00062
  223   -0.00025
  224    0.00009
  225    0.00007
  226    0.00009
  227    0.00003
  228   -0.00004
  229   -0.00003
  230    0.00006
  231   -0.00069
  232    0.00003
  233    0.00010
  234   -0.00058
  235   -0.00003
  236   -0.00006
  237    0.00001
  238    0.00028
  239    0.00018
  240   -0.00031
  241    0.00003
  242    0.00004
  243   -0.00000
  244    0.00000
  245    0.00004
  246   -0.00001
  247    0.00008
  248   -0.00022
  249   -0.00001
  250   -0.00007
  251   -0.00001
  252   -0.00006
 Ene=   -10.6783
 Spin= Alpha
 Occup= 1.0
    1   -0.00011
    2   -0.00049
    3    0.00080
    4   -0.00010
    5   -0.00002
    6   -0.00001
    7    0.00128
    8    0.00031
    9    0.00053
   10    0.00000
   11   -0.00003
   12    0.00007
   13   -0.00026
   14   -0.00010
   15   -0.00012
   16   -0.00001
   17   -0.00004
   18    0.00001
   19    0.00075
   20   -0.00024
   21    0.00005
   22   -0.00007
   23    0.00032
   24   -0.00001
   25   -0.00143
   26   -0.00011
   27    0.00027
   28   -0.00003
   29    0.00002
   30   -0.00002
   31    0.00005
   32   -0.00018
   33    0.00027
   34   -0.00001
   35   -0.00000
   36   -0.00001
   37    0.00000
   38    0.00001
   39   -0.00001
   40   -0.00004
   41    0.00011
   42   -0.00000
   43   -0.00001
   44    0.00002
   45   -0.00001
   46    0.00001
   47   -0.00001
   48    0.00004
   49    0.00006
   50    0.00010
   51   -0.00001
   52    0.00000
   53    0.00001
   54   -0.00000
   55   -0.00001
   56    0.00001
   57    0.00000
   58    0.00005
   59   -0.00001
   60    0.00001
   61   -0.00002
   62    0.00010
   63    0.99289
   64    0.04931
   65   -0.01686
   66   -0.00055
   67   -0.00007
   68   -0.00017
   69    0.00124
   70    0.00179
   71    0.00058
   72   -0.00885
   73   -0.00894
   74   -0.00903
   75    0.00007
   76   -0.00025
   77    0.00006
   78   -0.00016
   79    0.00164
   80    0.00152
   81   -0.00023
   82    0.00443
   83    0.00019
   84   -0.00011
   85   -0.00011
   86   -0.00198
   87    0.00043
   88    0.00086
   89   -0.00021
   90   -0.00027
   91   -0.00024
   92    0.00015
   93    0.00014
   94   -0.00015
   95   -0.00014
   96   -0.00060
   97   -0.00015
   98    0.00044
   99   -0.00013
  100    0.00014
  101    0.00001
  102   -0.00006
  103    0.00031
  104    0.00005
  105   -0.00003
  106   -0.00000
  107   -0.00006
  108    0.00035
  109   -0.00002
  110   -0.00002
  111   -0.00000
  112   -0.00002
  113    0.00003
  114   -0.00001
  115   -0.00000
  116    0.00001
  117    0.00008
  118   -0.00001
  119   -0.00002
  120    0.00013
  121   -0.00001
  122   -0.00001
  123    0.00000
  124    0.00006
  125   -0.00004
  126   -0.00004
  127   -0.00001
  128   -0.00002
  129   -0.00002
  130   -0.00001
  131   -0.00001
  132    0.00000
  133    0.00001
  134   -0.00002
  135   -0.00000
  136   -0.00005
  137   -0.00000
  138   -0.00001
  139   -0.00000
  140    0.00010
  141   -0.00068
  142   -0.00004
  143   -0.00001
  144   -0.00000
  145   -0.00003
  146    0.00002
  147   -0.00008
  148   -0.00001
  149    0.00001
  150    0.00001
  151    0.00002
  152   -0.00001
  153   -0.00000
  154    0.00003
  155    0.00027
  156   -0.00001
  157   -0.00005
  158    0.00044
  159    0.00001
  160    0.00001
  161   -0.00001
  162    0.00007
  163   -0.00013
  164   -0.00012
  165   -0.00002
  166   -0.00001
  167   -0.00001
  168   -0.00001
  169   -0.00001
  170    0.00001
  171    0.00001
  172   -0.00007
  173   -0.00001
  174   -0.00002
  175   -0.00001
  176   -0.00004
  177    0.01412
  178    0.00059
  179    0.00375
  180   -0.00030
  181   -0.00008
  182    0.00008
  183    0.00238
  184   -0.00012
  185   -0.00130
  186   -0.00041
  187   -0.00024
  188   -0.00027
  189   -0.00016
  190    0.00012
  191    0.00010
  192   -0.00010
  193   -0.00059
  194   -0.00006
  195   -0.00019
  196    0.00124
  197   -0.00008
  198    0.00000
  199   -0.00001
  200    0.00033
  201   -0.00014
  202   -0.00019
  203   -0.00008
  204   -0.00004
  205   -0.00002
  206    0.00004
  207   -0.00004
  208    0.00002
  209   -0.00002
  210   -0.00037
  211   -0.00002
  212   -0.00002
  213   -0.00004
  214   -0.00029
  215   -0.00001
  216   -0.00036
  217    0.00197
  218   -0.00016
  219    0.00010
  220   -0.00008
  221    0.00082
  222   -0.00017
  223    0.00002
  224   -0.00014
  225   -0.00021
  226   -0.00018
  227   -0.00006
  228   -0.00001
  229   -0.00005
  230    0.00001
  231   -0.00064
  232   -0.00002
  233    0.00006
  234   -0.00078
  235   -0.00003
  236    0.00005
  237   -0.00008
  238    0.00031
  239   -0.00000
  240   -0.00042
  241    0.00002
  242   -0.00004
  243   -0.00006
  244   -0.00001
  245   -0.00001
  246    0.00003
  247    0.00007
  248   -0.00029
  249    0.00002
  250    0.00011
  251    0.00002
  252   -0.00015
 Ene=   -10.6777
 Spin= Alpha
 Occup= 1.0
    1   -0.00012
    2   -0.00052
    3    0.00075
    4    0.00002
    5   -0.00007
    6    0.00008
    7   -0.00077
    8    0.00085
    9   -0.00078
   10   -0.00006
   11   -0.00002
   12    0.00003
   13   -0.00014
   14   -0.00015
   15   -0.00018
   16    0.00005
   17   -0.00006
   18    0.00008
   19    0.00024
   20    0.00010
   21    0.00044
   22   -0.00045
   23    0.00049
   24   -0.00042
   25    0.99288
   26    0.04938
   27   -0.01725
   28    0.00030
   29   -0.00040
   30    0.00039
   31   -0.00007
   32    0.00231
   33   -0.00020
   34   -0.00910
   35   -0.00887
   36   -0.00873
   37    0.00011
   38   -0.00013
   39   -0.00005
   40   -0.00014
   41    0.00166
   42    0.00149
   43   -0.00025
   44    0.00455
   45   -0.00000
   46   -0.00003
   47   -0.00023
   48    0.00002
   49   -0.00036
   50    0.00223
   51   -0.00013